ITEM: TIMESTEP
0
ITEM: NUMBER OF ATOMS
1952
ITEM: BOX BOUNDS pp pp pp
-1.3093119447755020e+01 1.3093119447755020e+01
-1.3093119447755020e+01 1.3093119447755020e+01
-1.3093119447755020e+01 1.3093119447755020e+01
ITEM: ATOMS id type xu yu zu
300 3 16.2102 14.1264 -6.29272
1691 7 -5.11044 -10.4426 -8.42495
1875 6 -1.90653 -8.69073 -5.82284
303 1 14.2863 13.2033 -5.08841
301 3 14.7715 15.222 -6.05582
235 3 14.7759 -8.23274 -6.56068
1676 7 -8.90716 -12.9678 -11.207
299 1 15.5728 14.6762 -5.5278
234 1 13.8322 -7.66449 -6.72481
302 2 15.128 13.9667 -4.68795
1361 7 -4.31604 -11.3945 -6.10341
1379 7 -7.28755 -9.56472 -8.04329
232 3 13.5818 -7.17395 -3.99704
1689 6 -5.93656 -10.0709 -8.73415
1377 6 -8.04119 -9.08325 -7.70205
1371 6 -8.78818 -6.51958 -7.12215
1876 7 -2.82602 -8.74575 -5.56256
1877 7 -1.74802 -7.75503 -5.94765
1360 7 -4.13476 -11.6596 -4.62398
1471 7 -8.64558 -5.21565 -4.15135
1372 7 -8.54375 -7.44313 -7.18157
1338 6 -5.40726 -7.43258 -2.99812
1373 7 -7.98368 -6.04454 -7.33037
1378 7 -8.74684 -9.72946 -7.67557
1313 7 -11.8567 -11.9757 -12.0043
1205 7 -2.73293 -12.4095 -3.15887
283 4 14.721 14.5842 -1.60356
296 1 16.4859 15.6823 -4.90696
285 1 16.7315 15.0213 -0.790905
288 2 16.8584 15.5108 -1.87084
284 5 15.3326 14.9785 -2.24429
289 1 18.0266 15.5614 -2.26013
1727 7 -0.417636 -7.48196 13.8095
290 3 18.5751 16.3883 -1.76217
292 1 18.1258 15.7718 -3.7869
280 1 15.2163 14.7216 -0.598866
294 3 19.1351 15.3919 -4.17027
295 2 17.2834 15.1202 -4.34136
291 3 18.6621 14.6247 -2.04936
1544 7 -7.80137 -9.67277 -12.302
1359 6 -4.71563 -11.2271 -5.24986
298 3 16.8923 16.2197 -5.76582
293 3 18.1353 16.8838 -4.02002
297 3 16.0082 16.357 -4.24697
1472 7 -9.16319 -6.30576 -5.06547
154 4 -3.617 14.5468 -7.68606
151 1 -3.6508 13.483 -8.17471
1891 7 -4.67383 -9.50256 -5.28228
1860 6 -9.9466 -7.99284 -1.57894
1861 7 -9.18277 -7.58996 -1.16604
129 5 -1.07218 15.893 -5.60786
128 4 -0.683457 15.3032 -4.9717
1553 7 -6.88558 -7.53377 -1.64554
1551 6 -7.4262 -7.4386 -0.861378
951 3 -1.47027 17.9711 -0.611851
1690 7 -6.10439 -10.5166 -9.56446
155 5 -2.73565 14.9035 -7.92193
1542 6 -7.00019 -10.0844 -12.6258
1122 6 -9.18386 -6.59124 -9.68958
1552 7 -7.41522 -6.49982 -0.674802
1708 7 -4.12494 -7.84365 -11.5111
1862 7 -9.74546 -8.92854 -1.59438
1652 7 -4.55836 -7.41415 -8.94421
1340 7 -4.51718 -7.11599 -2.84396
1650 6 -4.74865 -7.80033 -9.79914
1651 7 -5.15483 -8.64311 -9.59673
959 3 -4.06861 16.4058 -3.10924
1071 6 -9.3102 -8.84344 -11.7857
957 1 -3.87783 16.1374 -2.03993
1124 7 -9.47851 -6.74103 -8.79126
1428 6 -2.36871 -5.35834 -12.5863
1655 7 -10.8232 -5.12858 -4.66283
305 3 13.5989 13.519 -5.81503
902 3 14.2814 -6.69619 14.6496
138 3 -1.56559 16.9459 -8.89727
960 4 -3.97386 15.0375 -1.83441
231 3 13.9004 -8.8015 -4.8528
1123 7 -9.02614 -5.64828 -9.73634
1820 7 -1.46448 -5.9138 -6.73648
1675 7 -8.83969 -11.6104 -11.8739
1674 6 -8.30589 -12.2486 -11.4007
140 2 -1.04442 15.4229 -9.93352
1707 6 -4.2794 -7.8505 -12.4558
1892 7 -4.85881 -8.13568 -4.65833
1077 6 -2.74802 -6.65141 -3.38171
1879 7 13.3438 -5.28155 -2.93114
1709 7 -5.07519 -7.33156 -12.5726
1033 7 -10.3918 -9.31982 -10.6296
148 1 -4.01155 13.4844 -9.68879
142 3 -2.46285 16.4458 -10.8633
147 2 -3.66066 14.441 -10.2552
1339 7 -5.83102 -6.72809 -3.48838
1890 6 -4.57329 -8.568 -5.46319
1072 7 -8.8084 -8.2341 -11.2442
1430 7 -2.92218 -6.13897 -12.5636
137 1 -0.729441 16.3489 -9.34511
150 3 -5.07995 13.6006 -9.85445
141 1 -1.84082 15.5796 -10.8295
1429 7 -2.57461 -4.89445 -11.7748
120 1 -1.84128 -4.85469 -0.932419
1658 7 -7.29897 -6.04538 -11.9967
1519 7 -4.76237 -7.05932 -6.73377
233 2 13.3329 -7.17942 -5.79196
248 5 15.554 -4.48343 -6.97048
1078 7 -2.20121 -5.88852 -3.19402
281 3 15.1223 13.8172 -0.120851
230 1 13.2676 -7.87075 -4.81221
144 1 -2.67805 14.3378 -10.9236
145 3 -1.99958 13.48 -10.8863
146 3 -3.00118 14.3047 -11.9502
1470 6 -9.34142 -5.86783 -4.2332
1818 6 -2.15059 -5.77099 -6.08449
1079 7 -2.55568 -6.8658 -4.29455
123 4 -1.48337 -4.51506 -1.96949
240 2 14.1785 -5.58684 -7.52204
1654 7 -12.055 -5.04664 -5.53901
121 3 -1.66727 -5.95526 -0.829739
1653 6 -11.6065 -4.60136 -4.82018
1656 6 -6.67935 -6.6641 -11.6101
1203 6 -2.51596 -12.7738 -4.01702
900 1 13.949 -6.4081 13.6545
1207 7 -11.2958 -7.22735 -0.469506
1204 7 -1.70528 -12.3309 -4.26777
1073 7 -9.4203 -8.38808 -12.6204
96 3 -8.71056 -5.12075 -1.76366
956 3 -1.8609 15.7952 -2.49301
1381 7 -6.03952 -4.87085 -10.8392
955 3 -2.1172 17.3928 -2.41808
1520 7 -5.41007 -5.81936 -7.31245
1819 7 -2.96873 -5.88117 -6.56899
118 3 -3.97652 -4.91413 -1.43299
1543 7 -6.30266 -9.47518 -12.384
1765 7 -8.7571 -11.7129 -9.34868
1518 6 -4.65311 -6.39613 -7.41529
239 3 14.5563 -7.09745 -8.70985
1657 7 -7.08816 -6.9301 -10.7864
286 3 17.2416 14.0298 -0.597223
241 1 14.0463 -4.77373 -8.28967
94 1 -8.62883 -4.36779 -0.986568
143 3 -1.25461 15.5333 -11.8104
950 1 -1.96098 17.112 -0.0530497
961 5 -3.36555 14.9393 -1.053
97 4 -7.75524 -4.71855 -0.331857
954 1 -2.38593 16.4679 -1.85581
1024 7 -0.485402 -6.49506 -8.90646
237 1 13.8749 -6.68687 -7.89258
958 3 -4.43185 16.7131 -1.32433
117 1 -3.34461 -4.42347 -0.637842
953 2 -2.03892 16.2387 -0.739969
1893 6 -6.41362 -4.78502 -4.50175
1843 7 -6.54492 -4.62589 -8.46311
1842 6 -6.75926 -4.62952 -7.53022
122 3 -1.20604 -4.41053 -0.0744674
1023 6 -0.280767 -6.38165 -7.97829
903 4 14.4841 -5.43117 13.3878
1011 6 -8.78681 -4.83964 -12.4058
1013 7 -9.66678 -5.07215 -12.1095
1311 6 -12.4662 -11.7574 -11.2993
282 3 14.6696 15.5366 -0.0371785
1032 6 -11.1678 -9.55034 -10.1189
1034 7 -11.526 -10.3202 -10.5607
242 3 14.2503 -4.88747 -9.41697
1764 6 -8.63583 -12.0164 -8.44902
133 2 -0.340671 14.9635 -7.53347
1766 7 -7.73508 -12.3393 -8.42405
1312 7 -12.4802 -12.5371 -10.7442
315 5 -8.86516 13.2237 -4.35647
236 3 13.1643 -8.53831 -6.986
131 3 -0.358038 13.351 -6.71821
139 3 -0.0496907 17.0311 -9.88408
1880 7 13.6769 -5.90381 -1.59184
1725 6 -0.346472 -8.2959 13.3109
112 3 -3.21226 -0.622127 -0.490479
1865 7 -12.2602 -0.0861747 -6.98585
1864 7 -12.6547 -0.331566 -8.4267
1673 7 -1.05248 -2.97055 -6.29181
180 3 -0.219983 2.97862 -9.46546
1396 7 -0.775568 -0.701396 -11.3451
247 4 15.6728 -3.67758 -7.50519
179 1 -0.183881 4.11893 -9.29747
244 1 14.6226 -3.4211 -7.93361
1169 7 -2.93923 -0.441822 -12.3317
1221 6 -3.25788 2.20505 -0.743031
203 1 13.6154 4.30958 -8.63252
1612 7 -0.466041 3.675 -3.441
6 1 -0.866403 0.486816 -6.11705
787 3 15.7616 3.96539 -0.448094
1103 7 -9.30479 -3.61231 -8.94313
100 3 -8.08024 -3.04295 -2.56011
1936 7 -8.19294 -0.126078 -12.265
1101 6 -8.61897 -3.31328 -9.54018
99 1 -8.33637 -2.92578 -1.49117
613 1 13.8103 3.78409 13.5136
1451 7 -12.2187 -1.55407 -10.573
176 3 -1.73639 3.51346 -7.5861
1380 6 -6.00013 -4.00557 -10.4318
1382 7 -6.91359 -3.72519 -10.3751
557 4 13.1903 1.45003 -1.21443
101 3 -9.24998 -2.3428 -1.30692
102 2 -7.62106 -2.31851 -0.819015
7 3 -1.61298 -0.327639 -6.10151
965 4 -5.57902 2.12379 -2.44752
966 5 -4.95903 2.86097 -2.67817
1611 6 -1.28503 3.51616 -2.97169
1939 7 -10.5541 -1.91725 -5.64286
1940 7 -10.7492 -3.16305 -4.80512
1807 7 -3.24647 -2.7382 -6.04023
1742 7 -5.95013 -2.94985 -11.9216
2 3 -0.988562 0.445647 -3.91605
1808 7 -2.75894 -4.00181 -5.36384
103 1 -7.257 -1.28 -1.20427
1484 7 -2.98993 -0.919226 -10.2086
1482 6 -3.38991 -0.488899 -9.45286
1741 7 -7.01603 -2.55057 -12.9198
1740 6 -6.06704 -2.60115 -12.8054
1030 7 -2.14228 2.77008 -9.87592
1483 7 -3.1727 0.437017 -9.56117
1405 7 -10.4284 -0.764556 -3.16454
1853 7 -6.45178 0.342215 -9.54471
1868 7 -11.971 3.76174 -5.80566
1562 7 -5.46503 0.642886 -3.46855
1866 6 -12.184 2.9859 -5.28708
1867 7 -11.6314 2.29451 -5.65144
1919 7 -10.9113 0.250005 -5.1282
1918 7 -9.88076 0.223474 -6.23693
1917 6 -10.8135 0.363338 -6.07363
1583 7 -0.912429 -0.791155 -1.87951
1895 7 -6.64729 -4.3277 -5.30951
1406 7 -9.09298 -0.13726 -3.50383
1731 6 -6.87877 -1.842 -7.20107
1938 6 -10.5317 -2.2332 -4.73958
1404 6 -9.95649 0.0680317 -3.14547
1031 7 -2.72021 2.26948 -11.1826
1733 7 -7.49341 -1.18869 -6.86695
1613 7 -1.16715 2.65656 -2.56742
1190 7 -11.1756 1.37529 -0.768794
105 3 -6.95965 -1.24443 -2.2838
1189 7 -10.0726 1.2803 -1.80138
1937 7 -7.11637 0.862137 -12.6604
1804 7 -9.72059 -1.47196 -12.4782
1844 7 -6.83571 -3.70408 -7.29795
1803 6 -9.40973 -1.42435 -11.5741
1732 7 -6.84214 -1.67728 -8.14328
1188 6 -10.2576 1.60114 -0.918732
1894 7 -5.9635 -4.12533 -3.97409
1560 6 -5.3208 0.0360439 -4.19461
1448 7 -7.99565 1.60969 -5.57028
200 3 13.756 2.1527 -9.80311
197 3 16.7093 2.17183 -8.78053
202 2 14.3671 3.47007 -8.31153
201 3 14.5451 1.75957 -8.28087
1716 6 -6.17377 2.06396 -8.96563
196 1 16.0243 2.57238 -9.6118
195 2 16.4212 3.62847 -10.0363
199 1 14.5261 2.57834 -9.07978
1904 7 -4.83579 -2.10729 -7.32415
1195 7 -4.07513 2.06185 -5.94183
1447 7 -7.02067 0.504846 -5.22293
124 5 -1.40199 -3.54389 -1.90597
1194 6 -4.505 1.52585 -6.60827
1902 6 -3.98921 -2.45489 -7.60471
1717 7 -5.47169 1.93674 -8.32756
1196 7 -4.93337 0.826725 -6.11435
1903 7 -3.56523 -1.72233 -8.05173
1446 6 -7.9134 0.656751 -5.53309
1718 7 -6.44394 2.97452 -8.84682
1104 6 -3.38756 3.1933 -4.70326
1851 6 -6.26918 -0.591334 -9.65137
1852 7 -5.31942 -0.662547 -9.55585
1561 7 -5.24739 -0.822867 -3.77854
1029 6 -2.78671 2.15958 -10.234
1806 6 -2.88639 -3.06478 -5.21565
1440 6 -4.98437 -2.76214 -3.18842
106 1 -6.01919 -0.914019 -0.372867
1441 7 -4.50362 -2.76871 -2.36073
1627 7 -10.26 2.77456 -2.81905
1628 7 -10.9711 3.27834 -4.05695
1626 6 -10.166 3.38502 -3.55031
962 1 -6.53952 2.63168 -2.19106
1449 6 -12.0156 -0.6697 -10.2683
964 3 -7.40481 1.9088 -2.284
1324 7 -3.92827 -4.22948 -9.86713
1582 7 -1.02068 -1.64829 -3.1227
1581 6 -1.19831 -1.65309 -2.18213
1442 7 -4.3051 -2.81298 -3.86091
107 3 -5.94777 0.206947 -0.382704
1805 7 -10.1862 -1.1912 -11.0653
970 2 -5.44581 3.72093 -0.57721
245 3 14.8123 -2.71813 -8.74648
963 3 -6.70827 3.50131 -2.86552
1663 7 -5.49458 1.87492 -11.452
967 1 -6.44207 3.14538 -0.737498
1935 6 -7.94441 0.485441 -12.9582
1325 7 -2.71811 -3.76325 -9.08609
1323 6 -2.97129 -4.24961 -9.87068
1102 7 -9.09275 -2.97965 -10.3021
1662 6 -5.43945 1.7592 -12.4006
246 3 14.1206 -2.79779 -7.14358
174 3 -3.86838 4.16602 -8.65946
116 2 -3.47225 -3.32323 -0.745573
1106 7 -2.63063 3.37244 -4.14541
194 3 17.9841 2.70566 -10.8519
198 3 15.9275 1.67806 -10.3631
1839 6 13.6525 -3.16853 -11.5984
1105 7 -3.87379 4.01764 -4.72001
1355 7 -8.82137 3.43654 -4.84641
1167 6 -2.49707 -1.17453 -11.903
9 2 -0.232608 0.107327 -7.01231
95 3 -9.5806 -4.34923 -0.341841
1223 7 -4.01446 1.80626 -1.17289
109 2 -4.94965 -1.29883 -0.728938
8 3 -1.49197 1.36204 -6.29809
104 3 -7.89965 -0.386713 -0.971793
1664 7 -5.97545 2.46607 -12.7601
558 5 13.1479 0.478994 -0.995644
615 3 13.8083 2.81116 14.0375
192 1 17.4352 3.56762 -10.5771
548 3 13.7315 -0.92995 -3.64803
1168 7 -2.75787 -1.94273 -12.411
1353 6 -8.00686 3.42791 -5.34912
968 3 -7.41291 3.68467 -0.647835
193 3 17.1868 4.09837 -11.5342
1840 7 13.9157 -3.90335 -12.1525
98 5 -7.32464 -3.8894 -0.103737
1450 7 -12.692 -0.118833 -10.6623
1397 7 -0.19797 -0.77187 -9.94746
1354 7 -8.17119 4.0207 -6.08249
1863 6 -12.9766 -0.414588 -7.52909
1222 7 -3.5566 3.0798 -0.494395
1 1 -0.220501 0.448108 -4.72699
1671 6 -0.110442 -3.11318 -6.38379
1012 7 -8.91164 -4.0498 -12.932
1395 6 -0.0219879 -0.42663 -10.8227
969 3 -6.49161 2.23621 -0.0260916
1681 7 -10.2099 10.9695 -10.2433
306 1 13.4258 12.688 -3.95542
310 5 14.5197 13.0358 -2.67836
153 3 -4.35531 12.884 -7.59682
204 3 14.3065 4.92999 -9.23946
1008 6 -12.5793 9.70567 -10.2977
185 4 -0.370405 4.44421 -11.5978
1010 7 -12.6505 10.6178 -10.0163
614 3 14.5385 4.50163 13.9719
304 3 14.8021 12.3537 -5.66098
211 3 13.1385 7.17629 -6.4537
1680 6 -9.81449 11.5075 -10.9292
309 4 14.094 12.258 -3.09382
1393 7 -10.9306 7.48159 -1.47239
1505 7 -10.7169 9.6716 -0.428286
1536 6 -0.69041 8.38501 -11.7104
1233 6 13.5931 12.3235 -9.4168
1750 7 -0.150805 9.333 -6.40543
1009 7 -12.9126 9.70462 -11.195
338 3 -0.87379 6.7201 -3.49334
431 3 -2.28048 10.909 13.5757
209 2 13.6473 5.34877 -6.69553
1538 7 -0.275672 9.04252 -12.2689
170 3 -4.92633 6.4034 -7.73999
210 1 13.3121 6.17153 -5.89959
188 3 19.3593 4.68733 -10.5488
187 1 18.4026 4.66222 -9.99859
173 3 -3.49909 4.95162 -7.03074
169 3 -5.10265 5.89517 -9.48539
172 1 -3.2482 4.91628 -8.09656
175 1 -1.71309 4.5002 -8.04801
979 3 -1.80484 5.53746 -0.146435
1770 6 -3.96217 9.34907 -2.22671
317 3 -7.4223 10.4218 -2.44628
1693 7 -8.45577 8.52868 -4.00132
158 3 -1.63764 10.8139 -8.26927
152 3 -2.63261 13.0629 -8.0004
973 3 -6.33402 5.40409 -0.511679
171 2 -3.33533 5.88628 -8.72903
149 3 -3.76367 12.4845 -10.2038
1590 6 -11.5745 9.10466 -7.58436
159 4 -1.13639 9.04123 -8.15201
1579 7 -1.15001 11.9478 -4.00329
213 1 14.4507 6.51603 -5.03546
1060 7 -5.09605 6.82814 13.2306
1694 7 -9.69119 7.68731 -4.24159
177 3 -1.19243 5.26201 -7.41426
178 2 -1.3193 4.45477 -9.1895
324 3 -5.44535 10.9823 -5.92661
214 3 14.6206 5.65844 -4.36456
168 1 -4.3806 6.39767 -8.71514
191 5 17.8046 4.72263 -8.32462
190 4 18.5933 4.59316 -8.86314
1005 6 -11.7529 9.8621 -4.61414
189 3 17.9728 5.67298 -10.2387
333 2 -2.95917 8.0336 -4.37353
334 1 -2.94702 6.97388 -3.94745
335 3 -3.93199 6.72476 -3.54771
326 2 -4.12851 10.3029 -4.85744
313 3 -9.39779 11.155 -2.97955
328 3 -2.53834 10.1794 -5.74715
327 1 -3.57554 9.72412 -5.70525
1592 7 -12.1443 8.93571 -8.33469
473 3 -9.98392 9.05808 16.0257
1111 7 -6.61603 7.74438 -1.58341
469 4 -7.48228 9.22621 15.4785
1616 7 13.4131 10.8214 -0.322074
323 1 -4.70001 11.2905 -5.16647
215 3 14.1704 7.36278 -4.39886
468 3 -7.9128 9.21044 17.2716
157 3 -0.899748 10.1815 -9.68481
786 3 16.3337 5.45895 -1.34226
329 3 -3.95062 9.80863 -6.73143
325 3 -4.06618 12.0454 -5.70661
1578 6 -0.216587 11.8794 -4.20399
330 1 -3.50962 8.23479 -5.35064
477 3 -10.966 8.23901 14.3818
1392 6 -10.3848 8.24592 -1.28768
166 3 -5.12919 8.49068 -8.93383
1235 7 14.4893 12.2554 -9.08761
336 3 -2.77729 6.16322 -4.66935
160 5 -1.86691 8.38563 -8.2384
789 3 13.5194 4.53956 -0.438818
975 3 -3.71593 5.51556 -1.0169
331 3 -2.88399 7.90852 -6.22753
337 1 -1.83575 6.76924 -2.9526
1110 6 -6.06194 7.68527 -2.3617
1086 6 -8.22 10.4813 -6.58997
1242 6 -10.3764 11.8641 -8.02912
339 3 -2.08949 5.83929 -2.47432
217 5 15.1942 7.69299 -6.09862
216 4 15.4003 6.85303 -5.67855
432 3 -4.07329 10.8372 13.4835
156 1 -1.57502 9.87895 -8.8573
186 5 -0.968004 5.20932 -11.6004
476 3 -10.6491 6.60689 15.0115
165 1 -4.25939 7.86178 -9.27533
470 5 -7.75252 8.81483 14.6724
1272 6 -2.64614 6.29092 -11.4317
1273 7 -2.74678 6.10831 -10.4975
341 5 -0.890778 7.84638 -2.20164
322 3 -6.06556 12.9204 -4.45909
471 1 -9.29282 8.14815 15.9756
1345 7 -7.2278 12.4772 -12.0871
1274 7 -2.13004 7.09639 -11.4646
790 3 14.2665 4.44875 -2.07643
785 1 15.6384 5.07033 -0.53995
1486 7 -6.64718 9.70389 -4.6051
314 4 -8.75752 12.2721 -4.31994
1485 6 -6.86084 8.81902 -4.90105
1394 7 -9.90585 8.40122 -2.10177
1886 7 -10.3814 4.43619 -7.74254
320 1 -5.59664 11.9718 -4.02716
321 3 -4.88539 12.3152 -3.26705
788 1 14.1578 5.03926 -1.14274
1692 6 -9.40385 8.52118 -3.86968
1696 7 -6.95747 11.056 -8.19886
332 3 -4.4779 7.74062 -5.55092
1697 7 -7.05039 11.3028 -9.68961
1533 6 -5.56413 5.21301 -4.72036
1534 7 -6.21044 4.53577 -4.52071
791 2 13.8867 6.19532 -1.44087
1535 7 -6.01356 6.03677 -4.53154
318 3 -6.8528 12.0158 -1.91348
1487 7 -6.37413 8.2443 -4.31025
162 3 -3.06056 9.35729 -10.4088
161 1 -2.96144 9.42108 -9.26766
1591 7 -12.0015 9.82158 -7.11537
472 3 -9.49587 7.51824 16.9009
163 3 -3.76899 10.2483 -9.15695
467 3 -7.15249 7.71278 16.3269
1112 7 -5.27125 8.17292 -2.13098
1772 7 -3.14723 8.92522 -2.49588
164 2 -3.30886 8.41285 -8.78384
475 1 -10.207 7.41442 14.3886
340 4 -1.82381 7.56547 -2.19456
1695 6 -6.45727 11.3902 -8.94341
1884 6 -9.70395 4.75057 -7.1438
1243 7 -9.90452 11.1419 -7.61443
474 2 -9.27057 7.62375 14.9439
312 3 -8.70527 12.8809 -2.60383
1244 7 -9.79283 12.617 -7.93582
1771 7 -4.41044 9.55076 -3.04805
1087 7 -8.24194 11.0834 -5.84623
1007 7 -11.0501 9.29548 -4.29589
1006 7 -11.6339 10.6832 -4.13671
167 3 -4.4353 7.74912 -10.3657
316 1 -7.15984 11.4617 -2.80505
1885 7 -10.1316 5.44299 -6.63989
466 1 -7.88129 8.54356 16.3246
311 1 -8.62114 11.9553 -3.18851
1088 7 -7.70421 9.73658 -6.28069
319 2 -6.43152 11.1636 -3.78038
1577 7 -5.07105 10.0778 -0.354498
1682 7 -10.3805 11.38 -11.6905
1346 7 -7.16698 10.9768 -12.2795
1344 6 -6.79427 11.7971 -12.6026
1580 7 -0.120806 11.0175 -4.60929
1615 7 13.2987 11.3723 -1.7275
974 1 -4.14476 5.40546 -0.0071053
971 1 -5.56953 4.74553 -0.0716469
1288 7 -1.79936 -12.2092 7.36737
1597 7 -2.05847 -11.4139 10.8683
440 1 -8.46144 -8.00919 2.5139
437 3 -10.5768 -8.10732 3.23799
1287 6 -1.613 -12.6769 6.55328
441 3 -8.47422 -8.93492 3.1333
435 1 -9.96052 -7.62694 2.40951
729 2 -6.74932 15.0707 5.40177
1598 7 -1.98259 -10.3835 11.9748
727 3 -5.16866 14.845 5.901
438 4 -10.17 -6.52736 2.25397
1596 6 -1.93891 -11.326 11.814
947 1 -1.11069 16.7385 1.21589
715 3 -6.48172 14.8868 0.14268
946 2 -1.59665 15.8129 1.84805
663 3 13.3639 -5.32228 6.47696
1637 7 -4.1718 -8.68652 10.5269
1540 7 -4.82043 -4.81571 11.307
725 3 -4.18657 16.0541 4.00339
720 3 -5.59454 16.2934 1.59115
445 3 -7.2311 -5.98017 1.89121
1636 7 -5.33354 -9.26996 9.75116
446 3 -6.2222 -7.47002 1.92475
449 3 -5.74952 -4.92621 3.22157
722 2 -5.55856 15.0292 3.11521
452 3 -4.77715 -4.93283 5.34957
451 1 -5.11464 -5.95626 5.21473
450 2 -6.0911 -6.01513 4.52754
728 3 -5.41226 16.4339 5.95985
453 3 -4.24925 -6.60309 4.94508
459 3 -6.06265 -5.33477 8.97838
732 3 -7.91566 16.5268 5.83921
439 5 -9.57007 -6.21262 2.92298
458 1 -6.64463 -5.89274 8.23488
443 2 -7.88328 -7.13853 3.03981
444 1 -6.86658 -6.77455 2.54681
455 3 -5.80712 -7.47882 6.57838
460 3 -6.53532 -6.90088 8.65342
457 2 -6.37805 -5.72415 7.09982
723 1 -5.25986 15.9183 3.91276
454 1 -5.48161 -6.37863 6.68149
719 1 -5.38695 15.2526 1.94505
456 3 -4.60801 -6.39612 7.34863
726 1 -5.79728 15.587 5.29851
447 1 -5.84287 -5.98997 3.43084
724 3 -5.69585 16.8806 3.58769
1368 6 -10.6688 -6.50484 10.1913
1076 7 -5.05924 -12.4426 8.42039
1074 6 -5.03341 -11.7142 9.04086
1075 7 -5.44692 -12.0585 9.8325
721 3 -4.31698 14.8969 1.81159
1635 6 -4.74097 -8.51865 9.77588
448 3 -4.87729 -6.31064 2.97989
1370 7 -10.1447 -6.47733 9.39085
1193 7 -3.37496 -11.4497 8.83778
1191 6 -2.42019 -11.4062 8.89021
1923 6 -9.22653 -8.32039 11.4948
1192 7 -2.22339 -10.4697 8.9107
1925 7 -9.87252 -7.81578 11.0006
1924 7 -8.40499 -7.84497 11.3712
1183 7 -1.55528 -8.38034 11.9669
436 3 -10.2192 -8.12288 1.46241
744 5 -9.84697 15.342 3.77309
714 1 -6.26001 14.3379 1.05274
743 4 -10.489 14.9442 3.15527
736 2 -9.07759 14.2812 4.93144
654 3 16.1404 -8.49133 5.70379
655 4 15.1304 -9.16298 7.13276
658 3 14.8638 -6.9922 5.12811
1289 7 -0.671075 -12.8446 6.58308
1407 6 -6.62231 -7.31912 11.3672
652 1 15.1385 -8.75025 6.03801
1266 6 -6.49149 -12.2966 11.5221
656 5 14.7051 -8.44943 7.64388
718 5 -7.01774 14.4681 2.40949
1409 7 -6.00644 -7.69016 10.7354
60 3 -1.65319 -6.3346 7.72552
677 3 14.8577 -9.98377 10.1518
1408 7 -6.25677 -6.46128 11.5834
1347 6 -9.32051 -11.0736 11.2518
1348 7 -9.09359 -10.1476 11.1659
730 1 -7.56474 15.5225 6.17714
442 3 -8.17711 -8.27128 1.45333
740 1 -10.3772 13.8268 3.35515
717 4 -7.28073 14.1273 1.54796
731 3 -7.22385 15.5571 7.21076
733 1 -8.72582 14.4861 6.04226
734 3 -9.57678 14.9793 6.54073
1182 6 -2.45839 -8.4425 11.6558
737 1 -9.9789 13.4869 4.83872
742 3 -9.56676 13.3827 2.66205
741 3 -11.3556 13.4455 3.17286
952 3 -2.93492 17.4474 0.278228
1369 7 -11.5349 -6.79132 9.9013
1799 7 -0.184295 -8.54581 8.15642
1797 6 -0.152019 -9.1997 8.85471
1527 6 13.4843 -9.47924 2.27452
1349 7 -8.49582 -11.5372 11.1065
1528 7 13.7297 -10.3934 2.4169
941 3 -0.941917 13.7982 4.13959
1910 7 -7.93701 -5.58077 4.66378
461 1 -8.07668 -5.18674 8.34859
464 4 -8.78913 -5.76653 7.6821
465 5 -8.43768 -5.7934 6.77926
287 3 16.9962 15.7113 0.0505608
1908 6 -8.73732 -5.17422 4.99613
1422 6 -1.55793 -5.08654 2.76558
653 3 14.7326 -9.55375 5.37989
119 3 -3.56833 -4.90038 0.295658
657 1 14.3152 -7.50413 5.92822
659 3 13.2533 -7.72546 5.58624
678 1 13.9571 -11.7601 9.38128
1268 7 -6.44674 -11.4802 12.0198
679 3 14.492 -11.5544 8.35415
680 3 14.5158 -12.4383 10.0321
462 3 -8.45137 -5.32397 9.36329
1444 7 -10.8301 -4.59158 10.2817
1539 6 -5.33611 -5.11779 12.0547
935 5 -1.97078 14.2593 0.879369
1783 7 -1.40281 -5.41442 12.0129
716 3 -5.71327 13.3667 0.738314
1424 7 -0.908158 -4.39897 2.6197
676 3 13.8009 -10.7414 11.291
1184 7 -2.98943 -8.1729 12.4052
58 1 -0.911399 -6.238 6.90737
61 4 -0.539561 -7.25891 6.66482
1782 6 -0.958367 -5.58456 11.1824
1206 6 -11.8762 -6.67297 0.0519682
949 3 -0.201189 16.6003 0.698479
1208 7 -11.4126 -6.55261 0.880669
1423 7 -1.04233 -5.88693 2.86438
944 3 -1.33308 16.1225 3.49515
940 1 -1.41129 14.0914 3.14158
939 2 -1.02658 13.3696 2.32171
59 3 -1.41089 -5.81089 5.9878
934 4 -2.29185 13.6146 0.23235
904 5 14.1746 -5.22315 12.4959
1267 7 -6.34394 -12.9828 12.1729
1784 7 -1.63768 -5.9534 10.6178
660 2 14.5988 -6.86203 6.89722
942 3 -2.54166 14.1773 3.31387
735 3 -8.48352 13.6663 6.73964
1081 7 -5.74539 13.3099 3.9344
662 3 14.5091 -5.33064 7.90361
738 3 -10.8409 13.6006 5.56149
943 1 -0.921408 15.4699 2.75074
673 3 13.3628 -8.54347 11.4203
661 1 13.8356 -6.00944 7.27535
1647 6 -10.9534 13.3274 12.7775
1648 7 -10.4608 13.9122 12.2017
675 1 13.8581 -10.474 10.2217
948 3 -0.942189 17.6036 1.80859
667 2 13.114 -7.18651 9.00811
901 3 14.0541 -7.26882 12.9692
1541 7 -5.4682 -4.33371 12.5876
1172 7 -10.5808 -4.20016 5.96351
1170 6 -11.0769 -3.40655 6.16443
1684 7 13.38 -0.347342 10.9948
1113 6 -0.180107 0.903804 10.7487
1722 6 -2.66101 -3.03934 12.3588
1445 7 -11.7485 -3.44076 9.92958
1724 7 -3.01546 -3.28968 11.5056
1523 7 -2.52565 -3.85497 3.83806
1107 6 -2.88545 -3.66093 7.19845
1109 7 -3.01798 -3.84592 6.26869
1420 7 -0.340765 -2.18206 3.53397
1909 7 -8.60252 -4.23582 4.86399
610 3 16.0237 3.72942 12.6722
1443 6 -11.1183 -3.73194 10.5886
1838 7 -3.84586 1.87014 12.501
1835 7 13.2141 -2.30363 2.25545
1140 6 -12.081 -1.71158 12.2246
1108 7 -2.19025 -3.00319 7.21557
114 3 -3.89089 -3.16414 1.13218
1888 7 -9.53182 1.8365 0.610881
1723 7 -2.65966 -3.85128 12.8657
1934 7 -11.7949 -4.09286 2.52323
1473 6 -0.624599 -1.95975 7.9589
1245 6 -3.7228 -3.92308 9.97761
1247 7 -3.45511 -3.90315 9.05882
1171 7 -10.5354 -2.93978 6.80093
1246 7 -4.32543 -3.18492 10.0681
611 3 15.131 2.06754 12.3445
840 3 -0.769778 3.56763 10.0005
1622 7 -5.50427 -1.10503 12.0522
1887 6 -9.02915 1.87103 1.42474
1357 7 -8.7683 -2.63698 3.89231
1677 6 13.3707 -3.17425 8.58429
1610 7 -12.6311 2.81343 7.11887
1401 6 -2.51428 -0.58238 11.0355
1130 7 -7.0901 0.696755 11.0113
1932 6 -11.754 -3.48116 1.78812
1620 6 -5.25148 -0.694424 11.2253
463 3 -7.96223 -4.04616 8.07608
980 3 -1.71181 4.09804 0.774604
1256 7 -6.80548 -2.53669 8.81239
1255 7 -5.52607 -2.17148 8.09015
1254 6 -5.85788 -2.4778 8.93413
1545 6 -9.64729 0.320538 3.74692
1521 6 -3.13298 -3.35273 4.38132
1522 7 -2.75306 -2.47489 4.41733
1889 7 -9.00324 0.964002 1.72947
1001 7 -4.15792 -2.23437 6.42124
999 6 -4.90529 -1.63801 6.37615
1666 7 -8.58696 1.17575 8.37419
1356 6 -8.34558 -2.32153 4.69108
1667 7 -7.57018 1.32573 7.26263
1547 7 -10.4901 0.107068 4.14732
1702 7 -3.05398 1.61662 3.65228
1701 6 -2.139 1.35354 3.75145
1358 7 -7.40954 -2.34406 4.49219
1292 7 -8.74568 -0.771459 7.29706
1565 7 -6.04497 1.79235 5.88081
1314 6 -11.4289 2.91343 2.95532
1624 7 -1.53333 1.26487 1.92679
1067 7 -3.89518 2.62692 10.6242
1066 7 -4.14099 1.50406 9.63896
1623 6 -1.30378 1.31279 0.998761
1563 6 -5.79175 2.01784 6.77594
1315 7 -10.8024 2.35316 2.49731
115 3 -2.3637 -2.43105 0.470974
1316 7 -12.1987 2.35885 3.0822
1069 7 -8.48816 -3.33711 1.14851
1564 7 -5.21998 2.77936 6.67899
1019 7 -5.56158 -1.24092 4.03894
1000 7 -4.63306 -0.873306 6.88345
1291 7 -8.74613 -2.02109 6.44247
1290 6 -9.06482 -1.67363 7.2755
1018 7 -4.87079 -2.5676 3.80521
113 1 -3.43106 -2.63708 0.221618
1474 7 -0.460055 -1.03043 8.11863
1389 6 -4.28626 0.305819 8.18474
1017 6 -5.59044 -2.02249 3.48709
1296 6 -1.11235 -1.15225 4.79323
1114 7 -1.0005 0.442361 10.9226
1464 6 -12.016 -1.01222 4.82768
1068 6 -8.83625 -3.07856 2.00187
1390 7 -3.41777 0.638775 7.95871
1465 7 -11.6878 -1.89097 5.01827
1478 7 -9.62781 2.54358 5.94432
1550 7 -6.29163 1.02848 3.42
1099 7 -8.5267 -1.68426 10.7277
1809 6 -4.27406 2.73178 2.74734
1837 7 -2.72018 0.926812 12.1338
1391 7 -4.8831 1.01914 7.9585
1477 7 -10.2591 2.88691 4.61184
1028 7 -8.14452 3.50338 2.5011
1548 6 -6.7501 1.0567 4.25979
1634 7 -2.6989 2.65784 7.56222
1549 7 -7.61789 1.40069 4.04801
1026 6 -7.65002 3.66283 3.30502
1608 6 -12.3112 1.91362 7.05404
1098 6 -8.5924 -2.54812 11.1347
1933 7 -12.4755 -3.74403 1.21671
1027 7 -8.24305 3.39784 4.0081
1466 7 -12.4169 -1.08832 3.9618
1070 7 -9.7797 -3.22342 1.93011
1278 6 -11.0302 0.352589 8.79994
1280 7 -11.3245 0.874947 8.05378
1279 7 -10.1391 0.0883573 8.57132
1100 7 -9.41653 -2.90659 10.8053
1632 6 -2.17851 1.87308 7.73419
1633 7 -1.27432 2.1458 7.57834
1625 7 -2.11489 1.57642 0.564219
1836 6 -2.89211 1.81754 12.4392
1403 7 -2.13978 -1.40739 11.3443
1065 6 -4.53785 2.29894 9.99518
1811 7 -5.11313 3.11942 2.99617
608 3 16.6088 3.09544 10.7643
1402 7 -3.32425 -0.837033 10.5935
1703 7 -1.71924 2.10087 4.17751
1665 6 -8.43408 0.960678 7.45408
1298 7 -1.02533 -1.03885 5.7397
607 3 15.1536 2.6448 9.97117
1546 7 -9.00258 -0.137766 4.28593
606 1 15.591 3.43472 10.6962
1129 7 -6.86285 1.60522 9.8218
1128 6 -7.54143 1.10029 10.2699
1810 7 -3.97801 3.25716 2.00399
596 3 18.8187 3.28068 8.53624
1198 7 -7.00503 2.8386 11.682
1621 7 -5.38506 -1.37702 10.5677
1679 7 13.9697 -2.99633 7.85916
609 1 15.167 3.16913 12.1521
1476 6 -9.56815 3.16071 5.21506
601 3 16.4644 3.2487 8.07595
111 3 -4.23728 -0.835684 0.975732
1685 7 13.5093 0.894728 10.139
1475 7 -0.402511 -2.38833 8.78547
1154 7 -0.255763 -4.03921 10.2746
865 3 -5.27898 3.97597 5.45184
867 4 -4.12103 4.21797 6.8685
1297 7 -1.43132 -0.306413 4.47851
835 3 13.6754 4.24052 4.71822
108 3 -6.19445 -1.15568 0.68162
1197 6 -7.13638 3.50963 12.3518
1142 7 -12.2362 -2.09651 13.0872
612 2 14.111 3.69273 12.3246
603 3 14.4648 4.31032 8.90614
1141 7 -11.7757 -2.44239 11.6871
1199 7 -6.84686 4.3224 11.9373
599 1 16.6384 4.31611 8.3394
866 3 -3.46572 3.8944 5.15469
1179 6 -0.543157 3.86847 4.76875
839 3 -0.331693 3.86097 11.7518
1609 7 -12.961 1.46629 6.51202
110 1 -4.04045 -1.19127 0.0116305
1824 6 -12.8211 5.32583 2.11939
784 2 15.7954 5.75455 0.381514
831 3 13.2256 6.6095 4.63574
739 3 -9.59636 12.503 4.88083
1649 7 -10.5222 12.478 12.6827
783 3 17.7019 5.72181 0.35824
1896 6 -12.6082 10.9572 4.90998
1061 7 -4.6525 8.25537 12.9894
933 3 -1.49952 11.8746 0.0856368
984 2 -2.51948 6.76138 2.39001
434 5 -2.35563 9.28355 12.1831
496 5 -10.0412 10.5557 10.1406
1414 7 -12.3713 12.6175 8.00766
490 3 -7.16463 10.2103 9.03988
1180 7 -0.302007 4.36813 5.54876
426 2 -2.14381 10.7594 10.973
932 3 -3.17424 12.0878 0.592938
849 3 -3.89488 5.83175 10.4622
433 4 -3.05914 9.40383 12.835
845 3 -2.60425 4.4457 11.3326
851 3 -4.24582 8.39759 10.2871
597 3 18.6368 4.61648 7.37655
425 3 -2.46123 11.8954 9.4823
838 1 -0.613123 4.37504 10.8081
406 3 -0.37651 6.20204 6.08168
782 3 16.7972 4.59977 1.55338
983 3 -0.777392 5.95187 2.05634
978 1 -2.26982 5.03138 0.730304
1897 7 -12.4202 11.1944 5.81806
830 1 13.9114 6.26849 5.48034
864 1 -4.30615 4.40397 5.75176
982 3 -2.09158 5.15548 2.84084
977 2 -3.4425 4.7498 0.727382
423 1 -1.72902 11.4652 10.1624
495 4 -10.0465 11.1602 9.35061
824 3 15.1642 9.55145 7.04108
1051 7 -7.4386 11.1128 0.788052
430 1 -3.1322 10.5425 12.9869
480 3 -10.8842 6.55159 12.4832
938 3 -1.03411 11.5182 2.16726
842 5 -0.391386 5.91312 10.0586
1575 6 -5.43685 10.2996 0.501764
1559 7 -6.41031 8.90418 0.424588
429 3 -3.93741 11.0236 11.0075
427 1 -3.00454 11.2075 11.672
1050 6 -8.16994 11.6308 0.451839
1504 7 -9.99771 10.857 0.179587
404 1 -0.69455 6.60909 7.06263
1825 7 -12.107 4.68851 2.11213
604 3 15.1632 5.81213 9.12621
828 3 13.6494 8.52895 5.60287
776 1 16.889 6.49253 2.24516
605 2 15.5483 4.61137 10.3584
478 1 -9.93137 6.97625 12.9791
1557 6 -6.79216 8.02676 0.40114
823 1 15.0457 8.48384 7.30974
483 3 -8.42199 6.75254 11.2007
492 1 -8.94647 11.6409 9.41408
806 5 14.0575 7.89425 0.175524
815 2 18.5663 8.42892 5.94024
936 1 -1.72583 12.4671 2.10202
826 1 13.8186 7.98995 6.5163
494 3 -8.61088 12.0846 8.42087
862 3 -4.83695 6.18359 4.58312
931 1 -2.23842 12.5567 0.681128
829 2 13.6006 6.84144 6.45158
1754 7 -5.49843 12.6889 6.10083
1752 6 -5.34787 12.4328 7.01077
1753 7 -4.58198 11.8598 6.97524
422 3 -0.454266 11.5938 8.54296
808 3 18.3417 9.63084 2.91411
428 3 -2.94176 12.3047 11.7348
481 2 -9.41647 7.91481 12.4223
484 3 -9.8616 7.66131 10.6087
591 3 20.576 4.38349 9.18589
834 3 14.8661 4.58492 6.11511
844 3 -1.56069 5.41914 12.3151
1558 7 -7.66739 8.13591 0.773008
820 3 16.9826 7.82533 8.59265
852 3 -2.52375 8.46638 9.62189
1413 6 -11.834 11.9794 7.53836
986 3 -2.06191 7.88603 1.06196
488 2 -8.51725 9.77082 10.4897
424 3 -1.22901 12.3811 10.6512
937 3 -2.62387 12.2937 2.78308
1249 7 -2.32485 11.9567 5.60817
491 3 -7.20127 11.096 10.5343
976 3 -4.23354 6.44426 0.338778
1435 7 13.4621 12.8452 12.3024
1052 7 -8.01686 12.5119 0.793122
487 3 -7.35022 9.09346 11.6998
600 3 16.5265 4.88955 7.33108
861 1 -4.26151 5.96748 5.48803
843 1 -1.80174 5.22156 11.2725
1503 6 -10.8005 10.3406 0.251155
778 3 17.6953 6.08782 2.85066
781 1 16.7646 5.61608 1.00019
988 1 -2.99848 8.91365 2.73581
1510 7 -11.3421 10.0457 12.9184
856 3 -5.29447 8.34478 8.35633
1085 7 -1.24945 10.1451 5.29617
405 3 -1.17322 5.80615 7.66792
850 1 -3.40571 7.78351 9.69892
812 1 18.3872 8.21277 4.77063
868 5 -4.29502 5.09994 7.25784
780 5 16.1086 7.7861 1.7337
489 1 -7.92262 10.537 9.83246
593 4 19.4243 5.36678 10.1615
594 5 18.485 5.44315 10.0087
590 1 19.7162 5.04881 9.12228
811 5 18.5157 10.0448 5.42373
853 2 -3.5693 7.47495 8.55296
1511 7 -9.95869 9.54243 12.5651
1898 7 -11.7671 11.0415 4.46085
1083 6 -0.387724 9.80188 5.53246
1576 7 -4.96499 9.73841 1.11706
858 3 -3.59545 8.20991 5.85852
810 4 18.4968 10.4132 4.54939
779 4 17.0043 7.57401 1.9191
493 3 -9.04477 12.519 10.0431
825 3 14.7574 8.32789 8.35917
592 3 20.0401 5.96418 8.508
857 1 -4.47321 7.69738 6.48732
833 1 13.8185 4.80504 5.68043