LAMMPS data file via write_data, version 2 Aug 2023, timestep = 15000, units = real

1952 atoms
7 atom types
1600 bonds
6 bond types
2016 angles
9 angle types
1088 dihedrals
14 dihedral types

-13.09311944775502 13.09311944775502 xlo xhi
-13.09311944775502 13.09311944775502 ylo yhi
-13.09311944775502 13.09311944775502 zlo zhi

Masses

1 12.011
2 15.9994
3 1.008
4 15.9994
5 1.008
6 15.9994
7 1.008

Pair Coeffs # lj/cut/tip4p/long

1 0.056 3.58141
2 0.1 2.93997
3 0.035 2.38761
4 0.192 3.14487
5 0.046 0.40001
6 0.185199 3.1589
7 0 0

Bond Coeffs # harmonic

1 222.35 1.53
2 308.79 1.1111
3 359.76 1.1415
4 427.715 1.142
5 544.635 0.96
6 0 0.9572

Angle Coeffs # charmm

1 50 109 0 0
2 26.5 110.1 22.53 2.179
3 45 111.5 0 0
4 13.0258 109.4 0 0
5 35.5 109 5.4 1.802
6 55 108.89 0 0
7 75.7 110.1 0 0
8 95 109.7 0 0
9 0 104.52 0 0

Dihedral Coeffs # charmm

1 0.57 1 0 0
2 0.29 2 0 0
3 0.43 3 0 0
4 0.59 1 180 0
5 1.16 2 0 0
6 0.12 1 0 0
7 0.42 2 0 0
8 0.29 3 0 0
9 2.87 1 180 0
10 0.03 2 0 0
11 0.23 3 0 0
12 1.36 1 180 0
13 0.16 2 0 0
14 1.01 3 0 0

Atoms # full

300 10 3 0.09 -9.976080122294476 -12.059875398715574 -6.2927155964807024 0 1 0
1691 265 7 0.527 -5.110440753972888 -10.442558766688155 -8.424950936363997 0 0 0
1875 327 6 -1.054 -1.9065277926697675 -8.690727150200331 -5.822835259255656 0 0 0
303 10 1 -0.01 -11.899940438778794 -12.982940742917872 -5.088405960506788 0 1 0
112 4 3 0.09 -3.212256373591543 -0.6221266628304669 -0.4904790238735245 0 0 0
301 10 3 0.09 -11.414735640921775 -10.964231027302137 -6.055822842514005 0 1 0
235 8 3 0.09 -11.410366522762288 -8.232741487606585 -6.560676807530304 1 0 0
1681 262 7 0.527 -10.209916008399786 10.969494875020372 -10.243286364972299 0 0 1
1676 260 7 0.527 -8.907155055317153 -12.96775431792424 -11.20701658206024 0 0 1
306 10 1 0.05 -12.760391332584406 12.688011354783736 -3.9554239777272837 0 0 0
299 10 1 -0.01 -10.613409648362229 -11.510028342143876 -5.527804973477737 0 1 0
234 8 1 -0.01 -12.354012428221267 -7.664488808757238 -6.724808350487989 1 0 0
302 10 2 -0.34 -11.05821970730749 -12.219507169077307 -4.6879525507537085 0 1 0
1865 323 7 0.527 -12.260175173891083 -0.08617476462036917 -6.985849013435845 1 0 0
1361 155 7 0.527 -4.316043350221705 -11.394478778135033 -6.1034125403395425 0 0 0
1379 161 7 0.527 -7.287545560996148 -9.564717138871766 -8.043294331627983 0 0 0
232 8 3 0.09 -12.604403056027003 -7.173954789799823 -3.9970358337930065 1 0 0
310 10 5 0.42 -11.666537140940072 13.035771098291312 -2.678358560191823 0 0 0
1689 265 6 -1.054 -5.936555931267015 -10.070857424537552 -8.734149323227768 0 0 0
1377 161 6 -1.054 -8.041186198900968 -9.083247521835622 -7.7020546411681305 0 0 0
1371 159 6 -1.054 -8.788175899004022 -6.519576530948245 -7.122154939566632 0 0 0
1876 327 7 0.527 -2.826017907659116 -8.745751000319851 -5.562562253603513 0 0 0
1877 327 7 0.527 -1.7480229444629531 -7.755030177098686 -5.947651990425759 0 0 0
1360 155 7 0.527 -4.134759764344096 -11.659632129067113 -4.623978513068318 0 0 0
1471 192 7 0.527 -8.645578616571116 -5.215645562124198 -4.151352231785876 0 0 0
1372 159 7 0.527 -8.543753703558478 -7.443134231885683 -7.181574958430187 0 0 0
1338 148 6 -1.054 -5.407261137510991 -7.4325827400305515 -2.998115240193259 0 0 0
1373 159 7 0.527 -7.983678663167716 -6.044538555094554 -7.330373299682437 0 0 0
153 5 3 0.09 -4.3553107097135895 12.88401617800911 -7.596820294564794 0 0 0
1378 161 7 0.527 -8.746838578131156 -9.729455822460208 -7.675571684401293 0 0 0
1313 139 7 0.527 -11.856693317456838 -11.975678807159293 -12.0043307720164 0 0 0
1205 103 7 0.527 -2.732930081162862 -12.409498312693804 -3.158869078538237 0 0 0
283 10 4 -0.65 -11.465206897148802 -11.602037322354704 -1.6035629650973378 0 1 0
296 10 1 -0.01 -9.700304734722579 -10.503979236688233 -4.906962501254543 0 1 0
285 10 1 -0.01 -9.454709883563604 -11.164890316931066 -0.7909048027315375 0 1 0
288 10 2 -0.34 -9.327886116100235 -10.675434900940028 -1.8708359806675479 0 1 0
284 10 5 0.42 -10.853643833116895 -11.207778927711516 -2.2442901921180844 0 1 0
289 10 1 -0.01 -8.1596385144849 -10.624808942120186 -2.2601344780547796 0 1 0
1727 277 7 0.527 -0.41763638966457184 -7.481956851273253 -12.376715920682337 0 0 0
290 10 3 0.09 -7.611148588883508 -9.797962086777003 -1.7621714286353396 0 1 0
292 10 1 -0.01 -8.060454271890805 -10.414457546156918 -3.786904986045722 0 1 0
280 10 1 0.05 -10.969969999518977 -11.46465927726158 -0.598866277603252 0 1 0
294 10 3 0.09 -7.051165088280889 -10.794324094518151 -4.170272434369723 0 1 0
295 10 2 -0.34 -8.902818932395727 -11.066084496521349 -4.341361654799042 0 1 0
291 10 3 0.09 -7.524090305936433 -11.561555345673698 -2.049356845974517 0 1 0
1544 216 7 0.527 -7.801371161806629 -9.672767000271474 -12.301997444515504 0 0 1
1359 155 6 -1.054 -4.715634433138063 -11.22710153274977 -5.249864848213413 0 0 0
298 10 3 0.09 -9.29390277798345 -9.96653214217691 -5.765815695127342 0 1 0
293 10 3 0.09 -8.050987684386579 -9.30244603559026 -4.020017267546604 0 1 0
297 10 3 0.09 -10.178066003227173 -9.829272270735585 -4.246974054818872 0 1 0
1472 192 7 0.527 -9.163189911593495 -6.305762704012913 -5.065473859378271 0 0 0
154 5 4 -0.65 -3.6169957498354726 -11.639476238281018 -7.68606321085717 0 1 0
151 5 1 0.05 -3.650800199595324 -12.70320502337337 -8.174710090729718 0 1 0
1891 332 7 0.527 -4.673832032213534 -9.502555524221341 -5.282281594667582 0 0 0
1864 323 7 0.527 -12.654665631189918 -0.3315663700906326 -8.426701293738999 1 0 0
1860 322 6 -1.054 -9.946601437693857 -7.992840197885974 -1.5789413761946 0 0 0
1861 322 7 0.527 -9.182773612747432 -7.589958186262021 -1.1660431858472398 0 0 0
129 5 5 0.42 -1.0721752814622851 -10.293241809723463 -5.607864919311956 0 1 0
128 5 4 -0.65 -0.6834571860522056 -10.883064406923964 -4.971699495222397 0 1 0
1553 219 7 0.527 -6.885578314389193 -7.5337675061287195 -1.6455358298960931 0 0 0
1551 219 6 -1.054 -7.426198224114014 -7.438596068291167 -0.8613775065549968 0 0 0
951 31 3 0.09 -1.4702658141114753 -8.215180993931089 -0.6118508657365886 0 1 0
1690 265 7 0.527 -6.104389857928634 -10.516553166949375 -9.564461864874072 0 0 0
155 5 5 0.42 -2.7356484082350843 -11.282694381604145 -7.92192886951327 0 1 0
1542 216 6 -1.054 -7.000194681314292 -10.084446542504462 -12.62583079658436 0 0 1
1122 76 6 -1.054 -9.183858536468211 -6.591241138477932 -9.689581052168043 0 0 0
1552 219 7 0.527 -7.415223010419419 -6.499819707386246 -0.6748023637710223 0 0 0
1708 271 7 0.527 -4.124938837799619 -7.843647422764751 -11.51113527930243 0 0 0
1862 322 7 0.527 -9.745462729535873 -8.92854134690156 -1.594378645032089 0 0 0
1652 252 7 0.527 -4.558362261465598 -7.41415263116976 -8.944213761822372 0 0 1
1340 148 7 0.527 -4.5171834342685475 -7.115991842888994 -2.8439609146518765 0 0 0
1650 252 6 -1.054 -4.748649754779663 -7.8003278218526555 -9.799135511994352 0 0 1
1651 252 7 0.527 -5.154832854416826 -8.643109441452953 -9.596734314847568 0 0 1
959 31 3 0.09 -4.068610944876775 -9.780388965407639 -3.1092440168747055 0 1 0
1071 59 6 -1.054 -9.310201037361509 -8.843438448693014 -11.78566599572625 0 0 0
957 31 1 0.05 -3.877829661396889 -10.04879484410688 -2.0399259083583647 0 1 0
1124 76 7 0.527 -9.478505929342209 -6.7410276095041155 -8.79126122574806 0 0 0
1673 259 7 0.527 -1.052475448730287 -2.9705476890160045 -6.291806859885548 0 0 0
180 6 3 0.09 -0.21998332623240863 2.9786168683791616 -9.46545514094597 0 0 0
1428 178 6 -1.054 -2.3687130487685555 -5.358335470314149 -12.58634448192405 0 0 0
1655 253 7 0.527 -10.823182789200759 -5.12857515641601 -4.66283411703523 1 0 0
204 7 3 0.09 -11.879710632377218 4.929987914833487 -9.23946197251617 1 0 0
305 10 3 0.09 -12.58734926651385 -12.667231651979915 -5.815027944820769 0 1 0
902 30 3 0.09 -11.904813677487647 -6.6961850726632255 -11.536609280508609 1 0 1
138 5 3 0.09 -1.565591924732182 -9.24034763648769 -8.897270323552274 0 1 0
960 31 4 -0.65 -3.973862041605121 -11.148689635689296 -1.834407287803304 0 1 0
231 8 3 0.09 -12.285804553678144 -8.801503665553431 -4.852804826078273 1 0 0
1123 76 7 0.527 -9.02613660057781 -5.648283246965061 -9.736336136294922 0 0 0
1820 308 7 0.527 -1.4644757417861969 -5.913797302004685 -6.736475075302342 0 0 1
1675 260 7 0.527 -8.839688577261905 -11.610350990914268 -11.873949511258438 0 0 1
1674 260 6 -1.054 -8.305887099117541 -12.248603896343454 -11.40074659066817 0 0 1
140 5 2 -0.34 -1.0444239689855754 -10.763349236876682 -9.933523082300967 0 1 0
1707 271 6 -1.054 -4.279398448433279 -7.850503066788521 -12.455765906854989 0 0 0
1892 332 7 0.527 -4.858811058493309 -8.135677182275847 -4.658325245736121 0 0 0
1077 61 6 -1.054 -2.7480175906300346 -6.651410515602212 -3.381709805171933 0 0 0
1879 328 7 0.527 -12.842471966789603 -5.28154678390513 -2.931136602141228 0 0 0
1709 271 7 0.527 -5.07519135299907 -7.3315641555213125 -12.572589914837707 0 0 0
1033 46 7 0.527 -10.391810321690814 -9.319817891730953 -10.629613645492167 0 0 0
148 5 1 -0.01 -4.01154686050288 -12.701824029579544 -9.688790283048327 0 1 0
142 5 3 0.09 -2.462848266073378 -9.740486728065504 -10.863347614779936 0 1 0
147 5 2 -0.34 -3.6606580300189924 -11.74519286267046 -10.25519204008905 0 1 0
1339 148 7 0.527 -5.8310155139190725 -6.728093405074865 -3.488379269014213 0 0 0
1890 332 6 -1.054 -4.573288134043757 -8.567999370160459 -5.463189225511063 0 0 0
1072 59 7 0.527 -8.808401377741662 -8.234101108398749 -11.244244842335844 0 0 0
1008 38 6 -1.054 -12.579268311379627 9.705668223740682 -10.29772240711122 1 0 0
1430 178 7 0.527 -2.922184778809627 -6.13896613103788 -12.563617507311507 0 0 0
137 5 1 -0.01 -0.7294409261412282 -9.837328508473966 -9.345110281925367 0 1 0
185 6 4 -0.65 -0.37040480591141 4.4442098692912415 -11.597816438365497 0 0 0
150 5 3 0.09 -5.07994966489835 -12.585633714707093 -9.854451210952893 0 1 0
141 5 1 -0.01 -1.8408155705908182 -10.606657590665456 -10.829508324597489 0 1 0
1429 178 7 0.527 -2.574611969532305 -4.89445480568051 -11.77477074085313 0 0 0
120 4 1 0.05 -1.8412829924914502 -4.854690415115463 -0.9324186582461462 0 0 0
1658 254 7 0.527 -7.298969126289413 -6.04537686327095 -11.996703381886919 0 0 1
1519 208 7 0.527 -4.762373878542395 -7.0593241972579035 -6.7337696149719335 0 0 0
233 8 2 -0.34 -12.853292689648521 -7.179415224605332 -5.791955081110627 1 0 0
248 8 5 0.42 -10.632267064488623 -4.483427927613953 -6.970483512411002 1 0 0
1078 61 7 0.527 -2.201209905407656 -5.888516913510794 -3.1940224408741758 0 0 0
281 10 3 0.09 -11.063923203217431 -12.369073656538925 -0.12085079174147512 0 1 0
1396 167 7 0.527 -0.775568138058201 -0.7013960408534385 -11.345065347331232 0 0 0
230 8 1 -0.01 -12.918646005122207 -7.870750574773229 -4.812206689270016 1 0 0
144 5 1 -0.01 -2.678053164702423 -11.848453083319857 -10.923565023085338 0 1 0
145 5 3 0.09 -1.9995845501648435 -12.706204749221914 -10.886337969619094 0 1 0
146 5 3 0.09 -3.001179200255063 -11.881571875237071 -11.95020391419748 0 1 0
1010 38 7 0.527 -12.650492337959816 10.617791095153068 -10.016313722939216 1 0 0
1470 192 6 -1.054 -9.34141521377244 -5.867829913579103 -4.233198401839604 0 0 0
1818 308 6 -1.054 -2.150590211571065 -5.770992177667635 -6.084489282362874 0 0 1
1079 61 7 0.527 -2.555682977984372 -6.86580132119973 -4.294549222784988 0 0 0
123 4 4 -0.65 -1.4833732477204788 -4.515056707062062 -1.9694931461738978 0 0 0
240 8 2 -0.34 -12.007691609596051 -5.586837482555229 -7.522039877399745 1 0 0
614 20 3 0.09 -11.647723749800896 4.50163216567073 -12.214317581338493 0 0 1
1654 253 7 0.527 -12.055047923798663 -5.046644094612426 -5.539013763943289 1 0 0
121 4 3 0.09 -1.6672687863559346 -5.955257408314818 -0.8297390446467244 0 0 0
304 10 3 0.09 -11.384171556674447 12.353683580196877 -5.660978317256637 0 0 0
1653 253 6 -1.054 -11.606460818251923 -4.601364694452246 -4.820176107394052 1 0 0
1656 254 6 -1.054 -6.679352767908086 -6.664099982101333 -11.610065208134014 0 0 1
1203 103 6 -1.054 -2.515962657448234 -12.773828204096338 -4.0170186309160405 0 0 0
900 30 1 0.05 -12.23724695737019 -6.408101538698615 -12.531757122606097 1 0 1
1207 104 7 0.527 -11.29576053660746 -7.227349262726166 -0.46950571850144496 0 0 0
1204 103 7 0.527 -1.7052778155819177 -12.330943280054493 -4.267767218785224 0 0 0
211 7 3 0.09 -13.047731561280937 7.176287585431546 -6.453701326527115 1 0 0
1073 59 7 0.527 -9.42029736141131 -8.388080897515174 -12.620387502692337 0 0 0
1680 262 6 -1.054 -9.814493476816459 11.50750125264352 -10.929159469394284 0 0 1
96 4 3 0.09 -8.710560671458898 -5.120751553520792 -1.7636600944943832 0 0 0
956 31 3 0.09 -1.8609021335603673 -10.39100982883681 -2.4930074126529562 0 1 0
1381 162 7 0.527 -6.03951656818578 -4.870853268230193 -10.839179880021415 0 0 0
955 31 3 0.09 -2.1171962746640385 -8.793466429146347 -2.418076118702096 0 1 0
247 8 4 -0.65 -10.513428907177506 -3.6775777738942654 -7.505194919572498 1 0 0
1520 208 7 0.527 -5.410074091789099 -5.81936249411306 -7.312453012100104 0 0 0
179 6 1 -0.01 -0.18388112925239053 4.118927059821045 -9.297471280418156 0 0 0
1819 308 7 0.527 -2.9687294639391277 -5.881169786752882 -6.5689898990509255 0 0 1
118 4 3 0.09 -3.97652139031595 -4.914130741062233 -1.4329899750485469 0 0 0
1543 216 7 0.527 -6.302662194630002 -9.475181311868072 -12.384012483567329 0 0 1
1765 290 7 0.527 -8.75710017956528 -11.712880178678125 -9.34867655265247 0 1 0
1518 208 6 -1.054 -4.653111729798837 -6.396132994790212 -7.415290678619099 0 0 0
244 8 1 0.05 -11.563665605249657 -3.421104620139866 -7.933611464994207 1 0 0
239 8 3 0.09 -11.629920147842425 -7.097454159379016 -8.709848244644107 1 0 0
1657 254 7 0.527 -7.088163677550799 -6.930097032343632 -10.786444547929143 0 0 1
309 10 4 -0.65 -12.09222084903678 12.258004595393487 -3.093818428182486 0 0 0
286 10 3 0.09 -8.944595968535653 -12.156392501508408 -0.5972225093171091 0 1 0
241 8 1 -0.01 -12.139909281255447 -4.773734062471301 -8.289672028385905 1 0 0
94 4 1 0.05 -8.628831701403483 -4.367785552851433 -0.9865679482924058 0 0 0
143 5 3 0.09 -1.2546056839794986 -10.652952409181243 -11.810387614395477 0 1 0
1169 91 7 0.527 -2.939232951704481 -0.4418221783586104 -12.33174705446813 0 0 1
1393 166 7 0.527 -10.930579223595833 7.481590128850824 -1.472393328679772 0 0 0
1221 109 6 -1.054 -3.25788134449055 2.205052573959511 -0.7430312179303168 0 0 0
950 31 1 -0.01 -1.9609813601934656 -9.074240403316068 -0.053049744278572696 0 1 0
961 31 5 0.42 -3.365545634907367 -11.24697687287005 -1.0529960390766449 0 1 0
97 4 4 -0.65 -7.7552438153231344 -4.718552654649006 -0.3318572308655426 0 0 0
954 31 1 -0.01 -2.385929958875334 -9.718333642868226 -1.8558142689187038 0 1 0
1505 203 7 0.527 -10.716933280303339 9.671598180838156 -0.428285740122276 0 0 0
1024 43 7 0.527 -0.48540234024721535 -6.495058641319993 -8.906457209444023 0 0 0
237 8 1 -0.01 -12.311322600864612 -6.686868924365669 -7.892576512498684 1 0 0
203 7 1 -0.01 -12.570812017914518 4.309583180369492 -8.632518328970109 1 0 0
1536 214 6 -1.054 -0.6904102857771274 8.385012197897908 -11.710428414630266 0 0 1
1233 113 6 -1.054 -12.593175262371531 12.323542537920682 -9.416796768208382 0 0 0
1612 239 7 0.527 -0.46604125169543253 3.67499745363262 -3.4409975037923384 0 0 0
1750 285 7 0.527 -0.15080515016522342 9.332997490404853 -6.4054257632165745 0 0 0
6 1 1 -0.01 -0.8664028349007229 0.4868156182772153 -6.117048949196819 0 0 0
787 26 3 0.09 -10.424603217864696 3.965389104767046 -0.44809374349335784 1 0 0
1103 69 7 0.527 -9.30479233043626 -3.61230589450811 -8.943131950228501 1 0 1
100 4 3 0.09 -8.080243812897812 -3.0429548447134427 -2.560106200483543 0 0 0
1936 347 7 0.527 -8.192941883974465 -0.12607841668615388 -12.265029821788168 0 0 0
1101 69 6 -1.054 -8.618972743180487 -3.3132774297787395 -9.540179047756318 1 0 1
99 4 1 -0.01 -8.336365611773836 -2.925780676623164 -1.491173170312531 0 0 0
613 20 1 -0.01 -12.375973793317666 3.7840940753454917 -12.67261402967181 0 0 1
1009 38 7 0.527 -12.912631415251939 9.704617190413419 -11.194995884092702 1 0 0
338 11 3 0.09 -0.8737902425717948 6.720096598411031 -3.4933424588839332 0 0 0
1451 185 7 0.527 -12.218674875581701 -1.5540719495781796 -10.573016886857724 1 0 0
176 6 3 0.09 -1.7363887381369052 3.513455724501819 -7.586098787046943 0 0 0
431 14 3 0.09 -2.2804840379464735 10.908972500820582 -12.610501659803484 0 0 1
958 31 3 0.09 -4.431852495135235 -9.473154063148458 -1.3243313625939377 0 1 0
1380 162 6 -1.054 -6.000133427583218 -4.005569970156696 -10.431791088669586 0 0 0
1382 162 7 0.527 -6.91359372223791 -3.7251947467239357 -10.375121169584446 0 0 0
117 4 1 -0.01 -3.3446132542868634 -4.42346863388462 -0.6378421695792573 0 0 0
953 31 2 -0.34 -2.0389159729587916 -9.947585543305397 -0.7399692993621519 0 1 0
557 18 4 -0.65 -12.995914001623046 1.4500298033714882 -1.2144280379769694 1 0 0
101 4 3 0.09 -9.249979624740766 -2.3428030219045586 -1.3069194601089251 0 0 0
102 4 2 -0.34 -7.621057232470766 -2.31850848121028 -0.8190148747930832 0 0 0
7 1 3 0.09 -1.6129800152733023 -0.32763905561035034 -6.101512516308051 0 0 0
965 32 4 -0.65 -5.579017941372224 2.123787459453335 -2.4475228133644893 0 0 0
966 32 5 0.42 -4.959032503013998 2.8609724911058407 -2.678171327272715 0 0 0
209 7 2 -0.34 -12.538911954093292 5.3487731518293025 -6.695528315602268 1 0 0
1611 239 6 -1.054 -1.2850347642666287 3.5161582523428683 -2.971687862700024 0 0 0
1538 214 7 0.527 -0.27567202887170256 9.042516103973533 -12.268919661910552 0 0 1
1939 348 7 0.527 -10.554092761485926 -1.9172524478799524 -5.642856031369069 0 0 0
1940 348 7 0.527 -10.7492291972653 -3.163049282113985 -4.805116707711663 0 0 0
1807 304 7 0.527 -3.2464681813722938 -2.7381975182263565 -6.040226364117514 0 0 0
1742 282 7 0.527 -5.950127026939424 -2.949854175886354 -11.921647978782506 0 0 0
2 1 3 0.09 -0.9885624493394252 0.44564725780435666 -3.9160498332550486 0 0 0
1808 304 7 0.527 -2.758938157323284 -4.001809081607302 -5.363842378199049 0 0 0
103 4 1 -0.01 -7.256998451840205 -1.2800049202958554 -1.2042677575013399 0 0 0
1484 196 7 0.527 -2.9899339618387013 -0.9192255180123032 -10.20855204882787 0 0 0
1482 196 6 -1.054 -3.389908441805071 -0.488899155755316 -9.452859327672655 0 0 0
1741 282 7 0.527 -7.016032624452851 -2.5505734841309637 -12.919803892356633 0 0 0
1740 282 6 -1.054 -6.0670442200432 -2.601153978983799 -12.805373245213405 0 0 0
1030 45 7 0.527 -2.142279413331957 2.770079772736125 -9.875917186557858 0 0 1
1483 196 7 0.527 -3.1726990835051074 0.4370166238170542 -9.561173221258626 0 0 0
1405 170 7 0.527 -10.42836972834148 -0.7645557763390044 -3.16453786207853 0 0 0
1853 319 7 0.527 -6.451776986408299 0.3422148953168083 -9.54471432348845 0 0 0
1868 324 7 0.527 -11.971013958452655 3.76173696641411 -5.805664372556839 1 0 0
1562 222 7 0.527 -5.465025423801755 0.64288562098655 -3.4685459495924857 0 0 0
1866 324 6 -1.054 -12.184041550563906 2.9859042271067744 -5.287075590162241 1 0 0
1867 324 7 0.527 -11.631372021814125 2.294510376972296 -5.6514416043263775 1 0 0
1919 341 7 0.527 -10.911259937785463 0.2500045540711404 -5.128204996987769 0 0 0
1918 341 7 0.527 -9.880764344424339 0.2234737548173654 -6.23692947949125 0 0 0
1917 341 6 -1.054 -10.813504137709321 0.36333809932383476 -6.073631387218912 0 0 0
1583 229 7 0.527 -0.9124287695226526 -0.7911550038639089 -1.8795117201777256 0 0 0
1895 333 7 0.527 -6.6472941305906685 -4.327698946071188 -5.309513963238508 0 0 0
1406 170 7 0.527 -9.09297688317865 -0.1372601177033666 -3.5038328395332923 0 0 0
1731 279 6 -1.054 -6.87877437300231 -1.8420003356693764 -7.201071623958047 0 0 0
170 6 3 0.09 -4.92632937913116 6.403396215440226 -7.739993661479555 0 0 0
1893 333 6 -1.054 -6.413622924505184 -4.785020167579848 -4.501747358460555 0 0 0
1938 348 6 -1.054 -10.531723650788459 -2.2331956147337673 -4.73957791628938 0 0 0
1843 316 7 0.527 -6.544923302153607 -4.625893025945422 -8.46310851572129 0 0 0
1404 170 6 -1.054 -9.95649437042899 0.06803166112923761 -3.1454690835073347 0 0 0
1842 316 6 -1.054 -6.759262408748775 -4.629517364239341 -7.530221964390435 0 0 0
1031 45 7 0.527 -2.7202098499879326 2.2694839678117518 -11.182552322588148 0 0 1
1733 279 7 0.527 -7.493412846477888 -1.1886879770795449 -6.866954423459126 0 0 0
1613 239 7 0.527 -1.1671488350374954 2.656563411122992 -2.567421377812149 0 0 0
1190 98 7 0.527 -11.175622559117766 1.3752907768440448 -0.7687938974412292 0 0 0
105 4 3 0.09 -6.959645465117044 -1.2444349696916404 -2.2838028337029126 0 0 0
1189 98 7 0.527 -10.07260843603179 1.2803041621146498 -1.8013791365452236 0 0 0
1937 347 7 0.527 -7.116372810206249 0.8621369340864381 -12.660408762368224 0 0 0
1804 303 7 0.527 -9.72058678519506 -1.4719613998189327 -12.478183128941184 0 0 0
1844 316 7 0.527 -6.835711031459898 -3.7040786852756744 -7.2979492948383236 0 0 0
1803 303 6 -1.054 -9.409726998787852 -1.4243508271836782 -11.57411945361119 0 0 0
1732 279 7 0.527 -6.842135669574541 -1.6772828090037417 -8.143280446196506 0 0 0
1188 98 6 -1.054 -10.257613751398777 1.6011448633665988 -0.9187319253873505 0 0 0
1894 333 7 0.527 -5.963498999363333 -4.125327350254568 -3.9740870811453894 0 0 0
1560 222 6 -1.054 -5.320800391595653 0.03604390085323561 -4.194613501683609 0 0 0
1448 184 7 0.527 -7.995647615640515 1.6096856792229026 -5.570275382769314 0 0 0
200 7 3 0.09 -12.430262473971082 2.152704567237723 -9.80311057680214 1 0 0
197 7 3 0.09 -9.476960115736592 2.1718289237281714 -8.780527537856155 1 0 0
202 7 2 -0.34 -11.81916283017896 3.470067956795034 -8.31152637544401 1 0 0
201 7 3 0.09 -11.641160148439754 1.759568629743138 -8.280867567662524 1 0 0
1716 274 6 -1.054 -6.173773072498114 2.06395527607031 -8.965627150265664 0 0 0
196 7 1 -0.01 -10.16194778601831 2.572378381632886 -9.611802073156632 1 0 0
195 7 2 -0.34 -9.765023460856716 3.628467750533045 -10.036326624362824 1 0 0
199 7 1 -0.01 -11.660097005983245 2.5783384674645853 -9.079775934761823 1 0 0
1904 336 7 0.527 -4.835792338409665 -2.107293929506081 -7.3241531752951365 0 0 0
1195 100 7 0.527 -4.07512578787503 2.061853258567713 -5.941828940465782 0 0 0
1447 184 7 0.527 -7.020672146543057 0.5048459833776223 -5.222932772392459 0 0 0
124 4 5 0.42 -1.4019896996066896 -3.543890104931053 -1.9059692626270774 0 0 0
1194 100 6 -1.054 -4.504996371986904 1.5258466283600272 -6.608267180203581 0 0 0
1902 336 6 -1.054 -3.989212333894621 -2.4548865979294616 -7.6047122418052915 0 0 0
1717 274 7 0.527 -5.47168713614549 1.93674185242761 -8.327564623034494 0 0 0
1196 100 7 0.527 -4.933373842771423 0.8267251380884078 -6.114350736094515 0 0 0
1903 336 7 0.527 -3.565232335960036 -1.7223255395485595 -8.051732313896379 0 0 0
1446 184 6 -1.054 -7.913399137784882 0.6567513080537907 -5.5330855056251655 0 0 0
1718 274 7 0.527 -6.44394466869617 2.9745182738472993 -8.846824114601775 0 0 0
1104 70 6 -1.054 -3.387562372536414 3.1933011239490905 -4.703257949176866 0 0 0
1851 319 6 -1.054 -6.269179294060584 -0.5913344596048496 -9.651370382766038 0 0 0
1852 319 7 0.527 -5.31942346124665 -0.6625469963132037 -9.555848907851137 0 0 0
1561 222 7 0.527 -5.247390284659765 -0.8228672888738952 -3.778543479486905 0 0 0
1029 45 6 -1.054 -2.786705381524491 2.159575337275761 -10.234011219201948 0 0 1
1806 304 6 -1.054 -2.8863874170035597 -3.0647773017369775 -5.215654169445075 0 0 0
1440 182 6 -1.054 -4.984369135045478 -2.7621433868633085 -3.188420811796549 0 0 0
106 4 1 -0.01 -6.0191885543163535 -0.9140189462197962 -0.3728673285639711 0 0 0
1441 182 7 0.527 -4.503615350689444 -2.768711997920691 -2.360734592777993 0 0 0
210 7 1 -0.01 -12.87409658649758 6.1715348104917025 -5.899587689196608 1 0 0
1627 244 7 0.527 -10.25999701102218 2.7745640869064805 -2.819050673624464 0 0 0
1628 244 7 0.527 -10.97112659858229 3.27833751411366 -4.056953015418905 0 0 0
1626 244 6 -1.054 -10.16603834356713 3.3850208258865337 -3.5503138373691323 0 0 0
962 32 1 0.05 -6.539520530726756 2.631676392335253 -2.1910636927975617 0 0 0
1449 185 6 -1.054 -12.015567377120608 -0.6696995904819677 -10.268279766802042 1 0 0
964 32 3 0.09 -7.404812965404514 1.9088024194389104 -2.2839991591660946 0 0 0
1324 143 7 0.527 -3.9282728031914704 -4.229480245836245 -9.867125957963598 0 0 0
1582 229 7 0.527 -1.0206771727354986 -1.6482852638206886 -3.1226952109121564 0 0 0
1581 229 6 -1.054 -1.1983073707015943 -1.6530861401109005 -2.182133529918133 0 0 0
1442 182 7 0.527 -4.305101422518014 -2.8129839348144343 -3.8609102930195935 0 0 0
107 4 3 0.09 -5.9477747198860484 0.20694696154602568 -0.38270378567917446 0 0 0
188 7 3 0.09 -6.826934322616748 4.687333341904139 -10.548777262629383 1 0 0
1805 303 7 0.527 -10.18624281154872 -1.191197226945979 -11.065302763194108 0 0 0
970 32 2 -0.34 -5.445810612687257 3.72093028444718 -0.577210426605783 0 0 0
245 8 3 0.09 -11.37395435538266 -2.7181273978249285 -8.746477966349236 1 0 0
963 32 3 0.09 -6.708268480219506 3.5013052816769017 -2.865519870182236 0 0 0
1663 256 7 0.527 -5.4945750036737 1.8749206847348292 -11.451997925087422 0 0 0
967 32 1 -0.01 -6.442071769164567 3.1453814699678238 -0.7374984612617042 0 0 0
187 7 1 0.05 -7.783638545356735 4.66221741940259 -9.998593661114834 1 0 0
1935 347 6 -1.054 -7.94440833735236 0.4854408571884998 -12.95821584832573 0 0 0
1325 143 7 0.527 -2.7181053861166142 -3.763250729606661 -9.086088237116936 0 0 0
1323 143 6 -1.054 -2.9712910501502554 -4.249607457894503 -9.870681064969869 0 0 0
1102 69 7 0.527 -9.092750251668155 -2.979650920390806 -10.302058346201498 1 0 1
1662 256 6 -1.054 -5.439448646424436 1.7592026009924928 -12.400576992786712 0 0 0
246 8 3 0.09 -12.065633252842344 -2.7977903217758966 -7.143580318882977 1 0 0
174 6 3 0.09 -3.8683758446130274 4.1660170887163215 -8.659455602194681 0 0 0
122 4 3 0.09 -1.2060404157879108 -4.410529788135613 -0.07446743145290725 0 0 0
173 6 3 0.09 -3.4990948611974 4.951620098999391 -7.03074297862951 0 0 0
116 4 2 -0.34 -3.4722500060537054 -3.323225694537518 -0.7455734820749069 0 0 0
169 6 3 0.09 -5.1026503200108335 5.8951679546836 -9.48538561266712 0 0 0
1106 70 7 0.527 -2.6306304166818193 3.372439762387056 -4.145409270055524 0 0 0
1023 43 6 -1.054 -0.280766639050422 -6.381652896604524 -7.978289549312663 0 0 0
194 7 3 0.09 -8.202161246297836 2.7056552325319205 -10.851923043999113 1 0 0
198 7 3 0.09 -10.258696635341757 1.6780637095560191 -10.363067398451541 1 0 0
1839 315 6 -1.054 -12.533694426426466 -3.1685297123131613 -11.598437394488803 1 0 1
1105 70 7 0.527 -3.8737906703914753 4.017639188050986 -4.720009467860041 0 0 0
1355 153 7 0.527 -8.821369047885673 3.436535158660758 -4.846405151840901 0 0 0
172 6 1 -0.01 -3.248195988297413 4.91628207462649 -8.096561261163568 0 0 0
175 6 1 -0.01 -1.7130905028047385 4.500200638133507 -8.048012230866357 0 0 0
903 30 4 -0.65 -11.702157114279672 -5.431173421516226 -12.798389580760873 1 0 1
1011 39 6 -1.054 -8.78680854874544 -4.839641122286144 -12.405844296757424 1 0 1
979 32 3 0.09 -1.8048423940382379 5.53746144286277 -0.14643459382608895 0 0 0
1167 91 6 -1.054 -2.4970692581925973 -1.1745282313870902 -11.90295243499252 0 0 1
9 1 2 -0.34 -0.23260760922634177 0.10732665387484376 -7.012311956009921 0 0 0
1770 292 6 -1.054 -3.9621694752751093 9.349070199522066 -2.2267052795288866 0 0 0
95 4 3 0.09 -9.580600790110857 -4.349230515424348 -0.3418405485706788 0 0 0
1223 109 7 0.527 -4.014463458664502 1.8062609719638443 -1.1728923387503878 0 0 0
1013 39 7 0.527 -9.666777323481554 -5.072150528739921 -12.109489673323559 1 0 1
317 11 3 0.09 -7.4222999925310065 10.421831496008766 -2.4462834918867773 0 0 0
1693 266 7 0.527 -8.45577109456894 8.528681953570356 -4.001317937627784 0 0 0
109 4 2 -0.34 -4.949645982129334 -1.298826108039803 -0.7289383546673028 0 0 0
158 6 3 0.09 -1.6376407534112398 10.813930463136188 -8.26927221616353 0 0 0
152 5 3 0.09 -2.632610868536861 13.062901741999363 -8.000402361819626 0 0 0
1311 139 6 -1.054 -12.466161817423867 -11.757371160227681 -11.299262160372937 0 0 0
973 32 3 0.09 -6.3340208632126345 5.404086336546273 -0.5116793666003158 0 0 0
171 6 2 -0.34 -3.335334381471458 5.886276843092255 -8.729030919093995 0 0 0
8 1 3 0.09 -1.491966296467138 1.3620393367022539 -6.29809112417013 0 0 0
149 5 3 0.09 -3.7636667102739865 12.484466745774046 -10.203763264364602 0 0 0
104 4 3 0.09 -7.899650911876372 -0.38671260205849695 -0.9717927477196951 0 0 0
282 10 3 0.09 -11.516679985056319 -10.649638070605969 -0.037178518894447864 0 1 0
1664 256 7 0.527 -5.9754531767081405 2.46606578091718 -12.760125914523853 0 0 0
1590 232 6 -1.054 -11.574503011577796 9.104656954222476 -7.584359957497619 0 0 0
159 6 4 -0.65 -1.1363941725831412 9.041228639297213 -8.152010205728121 0 0 0
558 18 5 0.42 -13.038309536307837 0.4789944243843169 -0.9956441960804943 1 0 0
1579 228 7 0.527 -1.1500052218321286 11.947824489911165 -4.0032935901947395 0 0 0
213 7 1 0.05 -11.73554358109576 6.516032146507226 -5.035460980518508 1 0 0
1060 55 7 0.527 -5.096054502667176 6.828141279465761 -12.955622589738098 0 0 1
1032 46 6 -1.054 -11.167847228580914 -9.550342023831268 -10.118871847087641 0 0 0
1694 266 7 0.527 -9.691188439882838 7.687308784014717 -4.241588708034794 0 0 0
1034 46 7 0.527 -11.525979664575553 -10.320223983344906 -10.560747880856773 0 0 0
242 8 3 0.09 -11.935917140608789 -4.887472106994791 -9.416974956916095 1 0 0
177 6 3 0.09 -1.1924276026171536 5.262007154976411 -7.414257223280478 0 0 0
178 6 2 -0.34 -1.319296038272719 4.454767907798981 -9.189499185416873 0 0 0
324 11 3 0.09 -5.445351589765736 10.982317454345594 -5.926613967225833 0 0 0
214 7 3 0.09 -11.565646774838779 5.658435855976438 -4.3645601049259035 1 0 0
615 20 3 0.09 -12.37791301748723 2.811155516546034 -12.148730657878806 0 0 1
192 7 1 -0.01 -8.751055513763028 3.567616320921634 -10.577089788281329 1 0 0
168 6 1 -0.01 -4.380600800198065 6.397674046315068 -8.715144607030952 0 0 0
191 7 5 0.42 -8.381682461903994 4.722627422555859 -8.324624102591056 1 0 0
190 7 4 -0.65 -7.592947570230668 4.593160715868555 -8.863144246828947 1 0 0
1005 37 6 -1.054 -11.752852688091824 9.862097084717744 -4.61414070177074 0 0 0
189 7 3 0.09 -8.213418452014842 5.6729756690387125 -10.238668831187097 1 0 0
333 11 2 -0.34 -2.9591687042513937 8.033604295908853 -4.3735305091557874 0 0 0
548 18 3 0.09 -12.45473299410742 -0.9299499775434664 -3.6480265249462227 1 0 0