ITEM: TIMESTEP
0
ITEM: NUMBER OF ATOMS
1952
ITEM: BOX BOUNDS pp pp pp
-1.7500000000000000e+01 1.7500000000000000e+01
-1.7500000000000000e+01 1.7500000000000000e+01
-1.7500000000000000e+01 1.7500000000000000e+01
ITEM: ATOMS id type xs ys zs
47 2 0.019 0.009 0.201
48 1 0.059 0.009 0.201
49 3 0.059 0.0375714 0.201
51 1 0.139 0.009 0.201
52 3 0.139 0.0375714 0.201
54 2 0.179 0.009 0.201
55 1 0.219 0.009 0.201
56 3 0.219 0.0375714 0.201
619 4 0.039 0.05 0.04
620 5 0.039 0.0785714 0.04
1008 6 0.156 0.074 0.052
1009 7 0.172739 0.0956272 0.052
1010 7 0.172739 0.0523728 0.052
1032 6 0.097 0.087 0.161
1033 7 0.113739 0.108627 0.161
1034 7 0.113739 0.0653728 0.161
1110 6 0.12 0.123 0.229
1111 7 0.136739 0.144627 0.229
1112 7 0.136739 0.101373 0.229
1341 6 0.031 0.105 0.202
1342 7 0.0477395 0.126627 0.202
1343 7 0.0477395 0.0833728 0.202
1452 6 0.141 0.205 0.064
1453 7 0.157739 0.226627 0.064
1454 7 0.157739 0.183373 0.064
1499 7 0.207739 0.228373 0.227
1614 6 0.096 0.134 0.064
1615 7 0.112739 0.155627 0.064
1616 7 0.112739 0.112373 0.064
1851 6 0.131 0.246 0.171
1853 7 0.147739 0.224373 0.171
1854 6 0.072 0.182 0.16
1855 7 0.0887395 0.203627 0.16
1856 7 0.0887395 0.160373 0.16
1881 6 0.238 0.24 0.133
1908 6 0.228 0.172 0.079
1909 7 0.244739 0.193627 0.079
1910 7 0.244739 0.150373 0.079
58 1 0.259 0.009 0.201
59 3 0.259 0.0375714 0.201
61 4 0.299 0.009 0.201
62 5 0.299 0.0375714 0.201
593 4 0.479 0.05 0.04
594 5 0.479 0.0214286 0.04
1017 6 0.31 0.142 0.123
1018 7 0.326739 0.163627 0.123
1019 7 0.326739 0.120373 0.123
1443 6 0.411 0.119 0.014
1444 7 0.427739 0.140627 0.014
1445 7 0.427739 0.0973728 0.014
1608 6 0.316 0.089 0.054
1609 7 0.332739 0.110627 0.054
1610 7 0.332739 0.0673728 0.054
1701 6 0.342 0.179 0.054
1702 7 0.358739 0.200627 0.054
1703 7 0.358739 0.157373 0.054
1839 6 0.413 0.218 0.154
1840 7 0.429739 0.239627 0.154
1841 7 0.429739 0.196373 0.154
1875 6 0.443 0.108 0.147
1876 7 0.459739 0.129627 0.147
1877 7 0.459739 0.0863728 0.147
1883 7 0.254739 0.218373 0.133
342 1 0.109 0.369 0.132
343 3 0.109 0.340429 0.132
344 3 0.109 0.397571 0.132
345 4 0.069 0.369 0.132
346 5 0.069 0.340429 0.132
347 1 0.149 0.369 0.132
348 3 0.149 0.397571 0.132
349 3 0.149 0.340429 0.132
350 2 0.189 0.369 0.132
351 1 0.229 0.369 0.132
352 3 0.229 0.397571 0.132
353 3 0.229 0.340429 0.132
1164 6 0.003 0.316 0.02
1165 7 0.0197395 0.337627 0.02
1166 7 0.0197395 0.294373 0.02
1199 7 0.0757395 0.479373 0.203
1206 6 0.02 0.367 0.223
1207 7 0.0367395 0.388627 0.223
1208 7 0.0367395 0.345373 0.223
1260 6 0.146 0.476 0.137
1261 7 0.162739 0.497627 0.137
1262 7 0.162739 0.454373 0.137
1497 6 0.191 0.25 0.227
1498 7 0.207739 0.271627 0.227
1734 6 0.228 0.45 0.033
1735 7 0.244739 0.471627 0.033
1736 7 0.244739 0.428373 0.033
1819 7 0.00373949 0.345627 0.168
1820 7 0.00373949 0.302373 0.168
1852 7 0.147739 0.267627 0.171
354 1 0.309 0.369 0.132
355 3 0.309 0.397571 0.132
356 3 0.309 0.340429 0.132
357 2 0.349 0.369 0.132
358 1 0.389 0.369 0.132
359 3 0.389 0.397571 0.132
360 3 0.389 0.340429 0.132
361 1 0.469 0.369 0.132
362 3 0.469 0.397571 0.132
363 3 0.469 0.340429 0.132
714 1 0.467 0.431 0.015
715 3 0.467 0.402429 0.015
716 3 0.467 0.459571 0.015
717 4 0.427 0.431 0.015
718 5 0.427 0.402429 0.015
1044 6 0.373 0.485 0.213
1046 7 0.389739 0.463373 0.213
1458 6 0.301 0.493 0.159
1460 7 0.317739 0.471373 0.159
1467 6 0.319 0.28 0.095
1468 7 0.335739 0.301627 0.095
1469 7 0.335739 0.258373 0.095
1662 6 0.463 0.326 0.244
1663 7 0.479739 0.347627 0.244
1664 7 0.479739 0.304373 0.244
1821 6 0.388 0.328 0.032
1822 7 0.404739 0.349627 0.032
1823 7 0.404739 0.306373 0.032
1882 7 0.254739 0.261627 0.133
1071 6 0.163 0.242 0.402
1073 7 0.179739 0.220373 0.402
1081 7 0.00473949 0.0246272 0.402
1311 6 0.017 0.209 0.418
1312 7 0.0337395 0.230627 0.418
1313 7 0.0337395 0.187373 0.418
1332 6 0.214 0.12 0.354
1333 7 0.230739 0.141627 0.354
1334 7 0.230739 0.0983728 0.354
1491 6 0.214 0.116 0.442
1492 7 0.230739 0.137627 0.442
1493 7 0.230739 0.0943728 0.442
1611 6 0.094 0.243 0.462
1613 7 0.110739 0.221373 0.462
1761 6 0.044 0.07 0.452
1762 7 0.0607395 0.0916272 0.452
1763 7 0.0607395 0.0483728 0.452
1863 6 0.106 0.079 0.304
1864 7 0.122739 0.100627 0.304
1865 7 0.122739 0.0573728 0.304
1931 7 0.0157395 0.247373 0.318
65 3 0.4 0.0105714 0.374
69 3 0.44 0.0105714 0.374
652 1 0.367 0.091 0.27
653 3 0.367 0.0624286 0.27
654 3 0.367 0.119571 0.27
655 4 0.327 0.091 0.27
656 5 0.327 0.0624286 0.27
657 1 0.407 0.091 0.27
658 3 0.407 0.119571 0.27
659 3 0.407 0.0624286 0.27
660 2 0.447 0.091 0.27
661 1 0.487 0.091 0.27
662 3 0.487 0.119571 0.27
663 3 0.487 0.0624286 0.27
900 1 0.424 0.227 0.272
901 3 0.424 0.198429 0.272
903 4 0.384 0.227 0.272
904 5 0.384 0.198429 0.272
905 1 0.464 0.227 0.272
907 3 0.464 0.198429 0.272
1011 6 0.467 0.188 0.444
1012 7 0.483739 0.209627 0.444
1013 7 0.483739 0.166373 0.444
1134 6 0.451 0.097 0.428
1135 7 0.467739 0.118627 0.428
1136 7 0.467739 0.0753728 0.428
1305 6 0.399 0.202 0.409
1306 7 0.415739 0.223627 0.409
1307 7 0.415739 0.180373 0.409
1329 6 0.437 0.209 0.341
1330 7 0.453739 0.230627 0.341
1331 7 0.453739 0.187373 0.341
1368 6 0.263 0.246 0.466
1370 7 0.279739 0.224373 0.466
1422 6 0.406 0.027 0.448
1423 7 0.422739 0.0486272 0.448
1424 7 0.422739 0.00537285 0.448
1542 6 0.322 0.21 0.384
1543 7 0.338739 0.231627 0.384
1544 7 0.338739 0.188373 0.384
1680 6 0.313 0.158 0.448
1681 7 0.329739 0.179627 0.448
1682 7 0.329739 0.136373 0.448
1798 7 0.290739 0.00862715 0.415
1905 6 0.461 0.118 0.349
1906 7 0.477739 0.139627 0.349
1907 7 0.477739 0.0963728 0.349
20 1 0.002 0.387 0.308
21 3 0.002 0.415571 0.308
22 3 0.002 0.358429 0.308
23 2 0.042 0.387 0.308
24 1 0.082 0.387 0.308
25 3 0.082 0.415571 0.308
26 3 0.082 0.358429 0.308
27 1 0.122 0.387 0.308
28 3 0.122 0.415571 0.308
29 3 0.122 0.358429 0.308
30 4 0.162 0.387 0.308
31 5 0.162 0.415571 0.308
1072 7 0.179739 0.263627 0.402
1104 6 0.102 0.475 0.417
1105 7 0.118739 0.496627 0.417
1106 7 0.118739 0.453373 0.417
1242 6 0.083 0.344 0.427
1243 7 0.0997395 0.365627 0.427
1244 7 0.0997395 0.322373 0.427
1263 6 0.23 0.427 0.427
1264 7 0.246739 0.448627 0.427
1265 7 0.246739 0.405373 0.427
1494 6 0.018 0.409 0.451
1495 7 0.0347395 0.430627 0.451
1496 7 0.0347395 0.387373 0.451
1502 7 0.201739 0.479373 0.475
1599 6 0.075 0.28 0.273
1600 7 0.0917395 0.301627 0.273
1601 7 0.0917395 0.258373 0.273
1612 7 0.110739 0.264627 0.462
1828 7 0.00373949 0.443627 0.391
1829 7 0.00373949 0.400373 0.391
1838 7 0.193739 0.484373 0.367
1930 7 0.0157395 0.290627 0.318
902 3 0.424 0.255571 0.272
906 3 0.464 0.255571 0.272
1185 6 0.302 0.477 0.463
1186 7 0.318739 0.498627 0.463
1187 7 0.318739 0.455373 0.463
1369 7 0.279739 0.267627 0.466
1560 6 0.417 0.328 0.328
1561 7 0.433739 0.349627 0.328
1562 7 0.433739 0.306373 0.328
1674 6 0.376 0.387 0.412
1675 7 0.392739 0.408627 0.412
1676 7 0.392739 0.365373 0.412
280 1 0.236 0.166 0.603
281 3 0.236 0.137429 0.603
282 3 0.236 0.194571 0.603
283 4 0.196 0.166 0.603
284 5 0.196 0.137429 0.603
789 3 0.039 0.0235714 0.594
793 3 0.119 0.0235714 0.594
796 3 0.199 0.0235714 0.594
932 3 0.011 0.222429 0.682
938 3 0.051 0.222429 0.682
942 3 0.131 0.222429 0.682
945 3 0.211 0.222429 0.682
1317 6 0.051 0.182 0.532
1318 7 0.0677395 0.203627 0.532
1319 7 0.0677395 0.160373 0.532
1677 6 0.047 0.133 0.621
1678 7 0.0637395 0.154627 0.621
1679 7 0.0637395 0.111373 0.621
1710 6 0.139 0.127 0.525
1711 7 0.155739 0.148627 0.525
1712 7 0.155739 0.105373 0.525
1923 6 0.16 0.044 0.669
1924 7 0.176739 0.0656272 0.669
1925 7 0.176739 0.0223728 0.669
285 1 0.276 0.166 0.603
286 3 0.276 0.194571 0.603
287 3 0.276 0.137429 0.603
288 2 0.316 0.166 0.603
289 1 0.356 0.166 0.603
290 3 0.356 0.194571 0.603
291 3 0.356 0.137429 0.603
292 1 0.436 0.166 0.603
293 3 0.436 0.194571 0.603
294 3 0.436 0.137429 0.603
295 2 0.476 0.166 0.603
800 3 0.279 0.0235714 0.594
803 3 0.319 0.0235714 0.594
806 5 0.359 0.0235714 0.594
949 3 0.291 0.222429 0.682
952 3 0.371 0.222429 0.682
956 3 0.451 0.222429 0.682
959 3 0.491 0.222429 0.682
1803 6 0.396 0.216 0.521
1804 7 0.412739 0.237627 0.521
1805 7 0.412739 0.194373 0.521
1884 6 0.329 0.039 0.677
1885 7 0.345739 0.0606272 0.677
1886 7 0.345739 0.0173728 0.677
540 1 0.04 0.349 0.539
541 3 0.04 0.377571 0.539
542 3 0.04 0.320429 0.539
543 2 0.08 0.349 0.539
544 1 0.12 0.349 0.539
545 3 0.12 0.377571 0.539
546 3 0.12 0.320429 0.539
547 1 0.2 0.349 0.539
548 3 0.2 0.377571 0.539
549 3 0.2 0.320429 0.539
550 2 0.24 0.349 0.539
931 1 0.011 0.251 0.682
933 3 0.011 0.279571 0.682
936 1 0.051 0.251 0.682
937 3 0.051 0.279571 0.682
939 2 0.091 0.251 0.682
940 1 0.131 0.251 0.682
941 3 0.131 0.279571 0.682
943 1 0.211 0.251 0.682
944 3 0.211 0.279571 0.682
981 1 0.018 0.391 0.626
982 3 0.018 0.419571 0.626
983 3 0.018 0.362429 0.626
984 2 0.058 0.391 0.626
985 1 0.098 0.391 0.626
986 3 0.098 0.419571 0.626
987 3 0.098 0.362429 0.626
988 1 0.138 0.391 0.626
989 3 0.138 0.419571 0.626
990 3 0.138 0.362429 0.626
991 4 0.178 0.391 0.626
992 5 0.178 0.419571 0.626
1394 7 0.0317395 0.485373 0.693
551 1 0.28 0.349 0.539
552 3 0.28 0.377571 0.539
553 3 0.28 0.320429 0.539
554 1 0.32 0.349 0.539
555 3 0.32 0.377571 0.539
556 3 0.32 0.320429 0.539
557 4 0.36 0.349 0.539
558 5 0.36 0.377571 0.539
946 2 0.251 0.251 0.682
947 1 0.291 0.251 0.682
948 3 0.291 0.279571 0.682
950 1 0.371 0.251 0.682
951 3 0.371 0.279571 0.682
953 2 0.411 0.251 0.682
954 1 0.451 0.251 0.682
955 3 0.451 0.279571 0.682
957 1 0.491 0.251 0.682
958 3 0.491 0.279571 0.682
1209 6 0.33 0.353 0.614
1210 7 0.346739 0.374627 0.614
1211 7 0.346739 0.331373 0.614
1506 6 0.321 0.487 0.657
1508 7 0.337739 0.465373 0.657
1530 6 0.351 0.367 0.701
1531 7 0.367739 0.388627 0.701
1532 7 0.367739 0.345373 0.701
432 3 0.014 0.230429 0.801
857 1 0.053 0.016 0.773
858 3 0.053 0.0445714 0.773
860 2 0.093 0.016 0.773
861 1 0.133 0.016 0.773
862 3 0.133 0.0445714 0.773
864 1 0.173 0.016 0.773
865 3 0.173 0.0445714 0.773
867 4 0.213 0.016 0.773
868 5 0.213 0.0445714 0.773
877 2 0.033 0.226 0.952
878 1 0.073 0.226 0.952
880 3 0.073 0.197429 0.952
881 1 0.153 0.226 0.952
883 3 0.153 0.197429 0.952
884 2 0.193 0.226 0.952
885 1 0.233 0.226 0.952
887 3 0.233 0.197429 0.952
1272 6 0.127 0.054 0.909
1273 7 0.143739 0.0756272 0.909
1274 7 0.143739 0.0323728 0.909
1320 6 0.063 0.093 0.926
1321 7 0.0797395 0.114627 0.926
1322 7 0.0797395 0.0713728 0.926
1365 6 0.056 0.132 0.833
1366 7 0.0727395 0.153627 0.833
1367 7 0.0727395 0.110373 0.833
1686 6 0.186 0.034 0.976
1687 7 0.202739 0.0556272 0.976
1688 7 0.202739 0.0123728 0.976
1722 6 0.168 0.208 0.76
1723 7 0.184739 0.229627 0.76
1724 7 0.184739 0.186373 0.76
1772 7 0.0877395 0.240373 0.881
408 5 0.494 0.230429 0.801
888 1 0.313 0.226 0.952
890 3 0.313 0.197429 0.952
891 2 0.353 0.226 0.952
892 1 0.393 0.226 0.952
894 3 0.393 0.197429 0.952
895 1 0.433 0.226 0.952
897 3 0.433 0.197429 0.952
898 4 0.473 0.226 0.952
1029 6 0.446 0.031 0.821
1030 7 0.462739 0.0526272 0.821
1031 7 0.462739 0.00937285 0.821
1290 6 0.31 0.016 0.885
1291 7 0.326739 0.0376272 0.885
1302 6 0.376 0.135 0.92
1303 7 0.392739 0.156627 0.92
1304 7 0.392739 0.113373 0.92
1413 6 0.261 0.156 0.825
1414 7 0.277739 0.177627 0.825
1415 7 0.277739 0.134373 0.825
1488 6 0.409 0.118 0.819
1489 7 0.425739 0.139627 0.819
1490 7 0.425739 0.0963728 0.819
1533 6 0.296 0.015 0.99
1534 7 0.312739 0.0366272 0.99
1569 6 0.469 0.152 0.872
1570 7 0.485739 0.173627 0.872
1571 7 0.485739 0.130373 0.872
1757 7 0.368739 0.240373 0.882
234 1 0.03 0.383 0.756
235 3 0.03 0.411571 0.756
236 3 0.03 0.354429 0.756
237 1 0.11 0.383 0.756
238 3 0.11 0.411571 0.756
239 3 0.11 0.354429 0.756
240 2 0.15 0.383 0.756
241 1 0.19 0.383 0.756
242 3 0.19 0.411571 0.756
243 3 0.19 0.354429 0.756
244 1 0.23 0.383 0.756
245 3 0.23 0.411571 0.756
246 3 0.23 0.354429 0.756
430 1 0.014 0.259 0.801
431 3 0.014 0.287571 0.801
433 4 0.054 0.259 0.801
434 5 0.054 0.287571 0.801
879 3 0.073 0.254571 0.952
882 3 0.153 0.254571 0.952
886 3 0.233 0.254571 0.952
1038 6 0.122 0.286 0.834
1039 7 0.138739 0.307627 0.834
1040 7 0.138739 0.264373 0.834
1064 7 0.0727395 0.487373 0.909
1119 6 0.226 0.401 0.868
1120 7 0.242739 0.422627 0.868
1121 7 0.242739 0.379373 0.868
1161 6 0.07 0.355 0.839
1162 7 0.0867395 0.376627 0.839
1163 7 0.0867395 0.333373 0.839
1266 6 0.095 0.446 0.973
1267 7 0.111739 0.467627 0.973
1268 7 0.111739 0.424373 0.973
1344 6 0.155 0.384 0.859
1345 7 0.171739 0.405627 0.859
1346 7 0.171739 0.362373 0.859
1431 6 0.006 0.363 0.936
1432 7 0.0227395 0.384627 0.936
1433 7 0.0227395 0.341373 0.936
1770 6 0.071 0.262 0.881
1771 7 0.0877395 0.283627 0.881
94 1 0.439 0.425 0.864
95 3 0.439 0.396429 0.864
96 3 0.439 0.453571 0.864
97 4 0.399 0.425 0.864
98 5 0.399 0.396429 0.864
99 1 0.479 0.425 0.864
100 3 0.479 0.453571 0.864
101 3 0.479 0.396429 0.864
247 4 0.27 0.383 0.756
248 5 0.27 0.411571 0.756
407 4 0.494 0.259 0.801
889 3 0.313 0.254571 0.952
893 3 0.393 0.254571 0.952
896 3 0.433 0.254571 0.952
899 5 0.473 0.254571 0.952
1275 6 0.487 0.315 0.854
1602 6 0.314 0.347 0.835
1603 7 0.330739 0.368627 0.835
1604 7 0.330739 0.325373 0.835
1728 6 0.421 0.396 0.941
1729 7 0.437739 0.417627 0.941
1730 7 0.437739 0.374373 0.941
1743 6 0.259 0.274 0.794
1744 7 0.275739 0.295627 0.794
1745 7 0.275739 0.252373 0.794
1755 6 0.352 0.262 0.882
1756 7 0.368739 0.283627 0.882
1917 6 0.46 0.41 0.79
1918 7 0.476739 0.431627 0.79
1919 7 0.476739 0.388373 0.79
196 1 0.012 0.715 0.131
197 3 0.012 0.743571 0.131
198 3 0.012 0.686429 0.131
199 1 0.092 0.715 0.131
200 3 0.092 0.743571 0.131
201 3 0.092 0.686429 0.131
202 2 0.132 0.715 0.131
203 1 0.172 0.715 0.131
204 3 0.172 0.743571 0.131
205 3 0.172 0.686429 0.131
1182 6 0.016 0.613 0.215
1183 7 0.0327395 0.634627 0.215
1184 7 0.0327395 0.591373 0.215
1194 6 0.209 0.532 0.227
1195 7 0.225739 0.553627 0.227
1196 7 0.225739 0.510373 0.227
1197 6 0.059 0.501 0.203
1198 7 0.0757395 0.522627 0.203
1281 6 0.043 0.555 0.094
1282 7 0.0597395 0.576627 0.094
1283 7 0.0597395 0.533373 0.094
1719 6 0.16 0.523 0.05
1720 7 0.176739 0.544627 0.05
1721 7 0.176739 0.501373 0.05
206 1 0.252 0.715 0.131
207 3 0.252 0.743571 0.131
208 3 0.252 0.686429 0.131
209 2 0.292 0.715 0.131
210 1 0.332 0.715 0.131
211 3 0.332 0.743571 0.131
212 3 0.332 0.686429 0.131
213 1 0.372 0.715 0.131
214 3 0.372 0.743571 0.131
215 3 0.372 0.686429 0.131
216 4 0.412 0.715 0.131
217 5 0.412 0.743571 0.131
1005 6 0.267 0.706 0.203
1006 7 0.283739 0.727627 0.203
1007 7 0.283739 0.684373 0.203
1045 7 0.389739 0.506627 0.213
1374 6 0.48 0.559 0.203
1375 7 0.496739 0.580627 0.203
1376 7 0.496739 0.537373 0.203
1459 7 0.317739 0.514627 0.159
1689 6 0.386 0.531 0.101
1690 7 0.402739 0.552627 0.101
1691 7 0.402739 0.509373 0.101
1752 6 0.464 0.628 0.135
1753 7 0.480739 0.649627 0.135
1754 7 0.480739 0.606373 0.135
1812 6 0.307 0.603 0.024
1813 7 0.323739 0.624627 0.024
1814 7 0.323739 0.581373 0.024
50 3 0.059 0.980429 0.201
53 3 0.139 0.980429 0.201
57 3 0.219 0.980429 0.201
582 1 0.002 0.904 0.023
583 3 0.002 0.932571 0.023
584 3 0.002 0.875429 0.023
585 1 0.042 0.904 0.023
586 3 0.042 0.932571 0.023
587 3 0.042 0.875429 0.023
588 4 0.082 0.904 0.023
589 5 0.082 0.932571 0.023
1087 7 0.00373949 0.797627 0.032
1088 7 0.00373949 0.754373 0.032
1107 6 0.042 0.872 0.201
1108 7 0.0587395 0.893627 0.201
1109 7 0.0587395 0.850373 0.201
1137 6 0.198 0.891 0.104
1138 7 0.214739 0.912627 0.104
1139 7 0.214739 0.869373 0.104
1234 7 0.00473949 0.944627 0.137
1235 7 0.00473949 0.901373 0.137
1398 6 0.18 0.955 0.05
1399 7 0.196739 0.976627 0.05
1400 7 0.196739 0.933373 0.05
1683 6 0.146 0.884 0.163
1684 7 0.162739 0.905627 0.163
1685 7 0.162739 0.862373 0.163
1695 6 0.104 0.831 0.133
1696 7 0.120739 0.852627 0.133
1697 7 0.120739 0.809373 0.133
60 3 0.259 0.980429 0.201
1050 6 0.452 0.837 0.038
1051 7 0.468739 0.858627 0.038
1052 7 0.468739 0.815373 0.038
1077 6 0.414 0.804 0.215
1078 7 0.430739 0.825627 0.215
1079 7 0.430739 0.782373 0.215
1089 6 0.451 0.902 0.144
1090 7 0.467739 0.923627 0.144
1091 7 0.467739 0.880373 0.144
1092 6 0.369 0.814 0.073
1093 7 0.385739 0.835627 0.073
1094 7 0.385739 0.792373 0.073
1125 6 0.415 0.951 0.025
1126 7 0.431739 0.972627 0.025
1127 7 0.431739 0.929373 0.025
1338 6 0.375 0.943 0.184
1339 7 0.391739 0.964627 0.184
1340 7 0.391739 0.921373 0.184
1449 6 0.303 0.848 0.156
1450 7 0.319739 0.869627 0.156
1451 7 0.319739 0.826373 0.156
505 2 0.038 0.6 0.286
506 1 0.078 0.6 0.286
507 3 0.078 0.628571 0.286
508 3 0.078 0.571429 0.286
509 1 0.158 0.6 0.286
510 3 0.158 0.628571 0.286
511 3 0.158 0.571429 0.286
512 2 0.198 0.6 0.286
513 1 0.238 0.6 0.286
514 3 0.238 0.628571 0.286
515 3 0.238 0.571429 0.286
808 3 0.169 0.733429 0.436
811 5 0.129 0.733429 0.436
814 3 0.209 0.733429 0.436
1167 6 0.208 0.688 0.267
1168 7 0.224739 0.709627 0.267
1169 7 0.224739 0.666373 0.267
1239 6 0.019 0.629 0.354
1240 7 0.0357395 0.650627 0.354
1241 7 0.0357395 0.607373 0.354
1280 7 0.146739 0.734373 0.334
1349 7 0.0577395 0.743373 0.457
1500 6 0.185 0.501 0.475
1501 7 0.201739 0.522627 0.475
1572 6 0.202 0.646 0.447
1573 7 0.218739 0.667627 0.447
1574 7 0.218739 0.624373 0.447
1808 7 0.0867395 0.732373 0.368
1836 6 0.177 0.506 0.367
1837 7 0.193739 0.527627 0.367
1920 6 0.008 0.719 0.412
1921 7 0.0247395 0.740627 0.412
1922 7 0.0247395 0.697373 0.412
1932 6 0.121 0.612 0.432
1933 7 0.137739 0.633627 0.432
1934 7 0.137739 0.590373 0.432
516 1 0.318 0.6 0.286
517 3 0.318 0.628571 0.286
518 3 0.318 0.571429 0.286
519 2 0.358 0.6 0.286
520 1 0.398 0.6 0.286
521 3 0.398 0.628571 0.286
522 3 0.398 0.571429 0.286
523 1 0.438 0.6 0.286
524 3 0.438 0.628571 0.286
525 3 0.438 0.571429 0.286
526 4 0.478 0.6 0.286
527 5 0.478 0.628571 0.286
818 3 0.289 0.733429 0.436
821 3 0.369 0.733429 0.436
825 3 0.449 0.733429 0.436
1128 6 0.424 0.628 0.393
1129 7 0.440739 0.649627 0.393
1130 7 0.440739 0.606373 0.393
1605 6 0.317 0.624 0.46
1606 7 0.333739 0.645627 0.46
1607 7 0.333739 0.602373 0.46
1617 6 0.402 0.723 0.319
1618 7 0.418739 0.744627 0.319
1619 7 0.418739 0.701373 0.319
1632 6 0.281 0.638 0.348
1633 7 0.297739 0.659627 0.348
1634 7 0.297739 0.616373 0.348
1842 6 0.279 0.554 0.447
1843 7 0.295739 0.575627 0.447
1844 7 0.295739 0.532373 0.447
807 1 0.169 0.762 0.436
809 3 0.169 0.790571 0.436
810 4 0.129 0.762 0.436
812 1 0.209 0.762 0.436
813 3 0.209 0.790571 0.436
815 2 0.249 0.762 0.436
1082 7 0.00473949 0.981373 0.402
1251 6 0.238 0.856 0.356
1278 6 0.13 0.756 0.334
1279 7 0.146739 0.777627 0.334
1347 6 0.041 0.765 0.457
1348 7 0.0577395 0.786627 0.457
1512 6 0.063 0.887 0.273
1513 7 0.0797395 0.908627 0.273
1514 7 0.0797395 0.865373 0.273
1639 7 0.00173949 0.836627 0.264
1640 7 0.00173949 0.793373 0.264
1692 6 0.115 0.948 0.4
1693 7 0.131739 0.969627 0.4
1694 7 0.131739 0.926373 0.4
1698 6 0.165 0.945 0.465
1699 7 0.181739 0.966627 0.465
1700 7 0.181739 0.923373 0.465
1782 6 0.002 0.878 0.436
1783 7 0.0187395 0.899627 0.436
1784 7 0.0187395 0.856373 0.436
1806 6 0.07 0.754 0.368
1807 7 0.0867395 0.775627 0.368
1911 6 0.063 0.951 0.342
1912 7 0.0797395 0.972627 0.342
1913 7 0.0797395 0.929373 0.342
63 1 0.4 0.982 0.374
64 3 0.4 0.953429 0.374
66 4 0.36 0.982 0.374
67 5 0.36 0.953429 0.374
68 1 0.44 0.982 0.374
70 3 0.44 0.953429 0.374
71 2 0.48 0.982 0.374
373 1 0.403 0.877 0.283
374 3 0.403 0.848429 0.283
375 3 0.403 0.905571 0.283
376 4 0.363 0.877 0.283
377 5 0.363 0.848429 0.283
378 1 0.443 0.877 0.283
379 3 0.443 0.905571 0.283
380 3 0.443 0.848429 0.283
381 2 0.483 0.877 0.283
816 1 0.289 0.762 0.436
817 3 0.289 0.790571 0.436
819 1 0.369 0.762 0.436
820 3 0.369 0.790571 0.436
822 2 0.409 0.762 0.436
823 1 0.449 0.762 0.436
824 3 0.449 0.790571 0.436
1252 7 0.254739 0.877627 0.356
1253 7 0.254739 0.834373 0.356
1482 6 0.448 0.793 0.33
1483 7 0.464739 0.814627 0.33
1484 7 0.464739 0.771373 0.33
1776 6 0.417 0.937 0.441
1777 7 0.433739 0.958627 0.441
1778 7 0.433739 0.915373 0.441
1797 6 0.274 0.987 0.415
1799 7 0.290739 0.965373 0.415
1887 6 0.359 0.778 0.307
1888 7 0.375739 0.799627 0.307
1889 7 0.375739 0.756373 0.307
686 4 0.226 0.695 0.534
687 5 0.226 0.666429 0.534
757 1 0.056 0.562 0.566
758 3 0.056 0.590571 0.566
759 3 0.056 0.533429 0.566
760 2 0.096 0.562 0.566
761 1 0.136 0.562 0.566
762 3 0.136 0.590571 0.566
763 3 0.136 0.533429 0.566
764 1 0.216 0.562 0.566
765 3 0.216 0.590571 0.566
766 3 0.216 0.533429 0.566
1284 6 0.118 0.713 0.637
1285 7 0.134739 0.734627 0.637
1286 7 0.134739 0.691373 0.637
1392 6 0.015 0.507 0.693
1393 7 0.0317395 0.528627 0.693
1524 6 0.101 0.626 0.62
1525 7 0.117739 0.647627 0.62
1526 7 0.117739 0.604373 0.62
1552 7 0.00873949 0.745627 0.682
1553 7 0.00873949 0.702373 0.682
683 1 0.266 0.695 0.534
684 3 0.266 0.666429 0.534
685 3 0.266 0.723571 0.534
688 1 0.306 0.695 0.534
689 3 0.306 0.723571 0.534
690 3 0.306 0.666429 0.534
691 2 0.346 0.695 0.534
692 1 0.386 0.695 0.534
693 3 0.386 0.723571 0.534
694 3 0.386 0.666429 0.534
695 1 0.466 0.695 0.534
696 3 0.466 0.723571 0.534
697 3 0.466 0.666429 0.534
767 2 0.256 0.562 0.566
768 1 0.296 0.562 0.566
769 3 0.296 0.590571 0.566
770 3 0.296 0.533429 0.566
771 1 0.336 0.562 0.566
772 3 0.336 0.590571 0.566
773 3 0.336 0.533429 0.566
774 4 0.376 0.562 0.566
775 5 0.376 0.590571 0.566
1002 6 0.439 0.533 0.564
1003 7 0.455739 0.554627 0.564
1004 7 0.455739 0.511373 0.564
1188 6 0.256 0.612 0.666
1189 7 0.272739 0.633627 0.666
1190 7 0.272739 0.590373 0.666
1507 7 0.337739 0.508627 0.657
1518 6 0.464 0.668 0.648
1519 7 0.480739 0.689627 0.648
1520 7 0.480739 0.646373 0.648
1598 7 0.439739 0.737373 0.589
1746 6 0.319 0.733 0.707
1748 7 0.335739 0.711373 0.707
633 1 0.008 0.838 0.53
634 3 0.008 0.866571 0.53
635 3 0.008 0.809429 0.53
636 2 0.048 0.838 0.53
637 1 0.088 0.838 0.53
638 3 0.088 0.866571 0.53
639 3 0.088 0.809429 0.53
640 1 0.168 0.838 0.53
641 3 0.168 0.866571 0.53
642 3 0.168 0.809429 0.53
643 2 0.208 0.838 0.53
644 1 0.248 0.838 0.53
645 3 0.248 0.866571 0.53
646 3 0.248 0.809429 0.53
788 1 0.039 0.995 0.594
790 3 0.039 0.966429 0.594
791 2 0.079 0.995 0.594
792 1 0.119 0.995 0.594
794 3 0.119 0.966429 0.594
795 1 0.199 0.995 0.594
797 3 0.199 0.966429 0.594
798 2 0.239 0.995 0.594
1293 6 0.011 0.848 0.717
1294 7 0.0277395 0.869627 0.717
1295 7 0.0277395 0.826373 0.717
1350 6 0.189 0.82 0.707
1351 7 0.205739 0.841627 0.707
1352 7 0.205739 0.798373 0.707
1362 6 0.056 0.966 0.511
1363 7 0.0727395 0.987627 0.511
1364 7 0.0727395 0.944373 0.511
1627 7 0.00673949 0.945627 0.69
1628 7 0.00673949 0.902373 0.69
1629 6 0.091 0.786 0.703
1630 7 0.107739 0.807627 0.703
1631 7 0.107739 0.764373 0.703
1653 6 0.163 0.922 0.635
1654 7 0.179739 0.943627 0.635
1655 7 0.179739 0.900373 0.635
1665 6 0.245 0.778 0.608
125 1 0.372 0.832 0.65
126 3 0.372 0.803429 0.65
127 3 0.372 0.860571 0.65
128 4 0.332 0.832 0.65
129 5 0.332 0.803429 0.65
130 1 0.412 0.832 0.65
131 3 0.412 0.860571 0.65
132 3 0.412 0.803429 0.65
133 2 0.452 0.832 0.65
134 1 0.492 0.832 0.65
135 3 0.492 0.860571 0.65
136 3 0.492 0.803429 0.65
647 1 0.288 0.838 0.53
648 3 0.288 0.866571 0.53
649 3 0.288 0.809429 0.53
650 4 0.328 0.838 0.53
651 5 0.328 0.866571 0.53
799 1 0.279 0.995 0.594
801 3 0.279 0.966429 0.594
802 1 0.319 0.995 0.594
804 3 0.319 0.966429 0.594
805 4 0.359 0.995 0.594
1218 6 0.447 0.916 0.685
1219 7 0.463739 0.937627 0.685
1220 7 0.463739 0.894373 0.685
1584 6 0.303 0.905 0.67
1585 7 0.319739 0.926627 0.67
1586 7 0.319739 0.883373 0.67
1596 6 0.423 0.759 0.589
1597 7 0.439739 0.780627 0.589
1666 7 0.261739 0.799627 0.608
1667 7 0.261739 0.756373 0.608
1740 6 0.4 0.906 0.522
1741 7 0.416739 0.927627 0.522
1742 7 0.416739 0.884373 0.522
1747 7 0.335739 0.754627 0.707
271 2 0.038 0.737 0.932
272 1 0.078 0.737 0.932
274 3 0.078 0.708429 0.932
275 1 0.118 0.737 0.932
277 3 0.118 0.708429 0.932
278 4 0.158 0.737 0.932
312 3 0.145 0.744429 0.811
315 5 0.105 0.744429 0.811
318 3 0.185 0.744429 0.811
435 1 0.106 0.553 0.76
436 3 0.106 0.524429 0.76
437 3 0.106 0.581571 0.76
438 4 0.066 0.553 0.76
439 5 0.066 0.524429 0.76
440 1 0.146 0.553 0.76
441 3 0.146 0.581571 0.76
442 3 0.146 0.524429 0.76
443 2 0.186 0.553 0.76
444 1 0.226 0.553 0.76
445 3 0.226 0.581571 0.76
446 3 0.226 0.524429 0.76
1062 6 0.056 0.509 0.909
1063 7 0.0727395 0.530627 0.909
1536 6 0.15 0.68 0.986
1537 7 0.166739 0.701627 0.986
1538 7 0.166739 0.658373 0.986
1622 7 0.242739 0.730373 0.99
1779 6 0.227 0.608 0.925
1780 7 0.243739 0.629627 0.925
1781 7 0.243739 0.586373 0.925
1848 6 0.213 0.703 0.753
1849 7 0.229739 0.724627 0.753
1850 7 0.229739 0.681373 0.753
1902 6 0.163 0.584 0.935
1903 7 0.179739 0.605627 0.935
1904 7 0.179739 0.562373 0.935
1935 6 0.12 0.563 0.858
1936 7 0.136739 0.584627 0.858
1937 7 0.136739 0.541373 0.858
1944 6 0.047 0.65 0.801
1945 7 0.0637395 0.671627 0.801
1946 7 0.0637395 0.628373 0.801
156 1 0.341 0.535 0.948
157 3 0.341 0.506429 0.948
158 3 0.341 0.563571 0.948
159 4 0.301 0.535 0.948
160 5 0.301 0.506429 0.948
161 1 0.381 0.535 0.948
162 3 0.381 0.563571 0.948
163 3 0.381 0.506429 0.948
164 2 0.421 0.535 0.948
165 1 0.461 0.535 0.948
166 3 0.461 0.563571 0.948
167 3 0.461 0.506429 0.948
322 3 0.265 0.744429 0.811
325 3 0.345 0.744429 0.811
329 3 0.425 0.744429 0.811
447 1 0.306 0.553 0.76
448 3 0.306 0.581571 0.76
449 3 0.306 0.524429 0.76
450 2 0.346 0.553 0.76
451 1 0.386 0.553 0.76
452 3 0.386 0.581571 0.76
453 3 0.386 0.524429 0.76
454 1 0.466 0.553 0.76
455 3 0.466 0.581571 0.76
456 3 0.466 0.524429 0.76
1047 6 0.404 0.665 0.992
1048 7 0.420739 0.686627 0.992
1049 7 0.420739 0.643373 0.992
1179 6 0.471 0.716 0.885
1180 7 0.487739 0.737627 0.885
1181 7 0.487739 0.694373 0.885
1403 7 0.488739 0.739373 0.983
1623 6 0.323 0.701 0.934
1624 7 0.339739 0.722627 0.934
1625 7 0.339739 0.679373 0.934
1704 6 0.402 0.668 0.853
1705 7 0.418739 0.689627 0.853
1706 7 0.418739 0.646373 0.853
1914 6 0.482 0.697 0.766
1915 7 0.498739 0.718627 0.766
1916 7 0.498739 0.675373 0.766
273 3 0.078 0.765571 0.932
276 3 0.118 0.765571 0.932
279 5 0.158 0.765571 0.932
311 1 0.145 0.773 0.811
313 3 0.145 0.801571 0.811
314 4 0.105 0.773 0.811
316 1 0.185 0.773 0.811
317 3 0.185 0.801571 0.811
319 2 0.225 0.773 0.811
466 1 0.127 0.868 0.946
467 3 0.127 0.839429 0.946
468 3 0.127 0.896571 0.946
469 4 0.087 0.868 0.946
470 5 0.087 0.839429 0.946
471 1 0.167 0.868 0.946
472 3 0.167 0.896571 0.946
473 3 0.167 0.839429 0.946
474 2 0.207 0.868 0.946
475 1 0.247 0.868 0.946
476 3 0.247 0.896571 0.946
477 3 0.247 0.839429 0.946
859 3 0.053 0.987429 0.773
863 3 0.133 0.987429 0.773
866 3 0.173 0.987429 0.773
1023 6 0.042 0.967 0.938
1024 7 0.0587395 0.988627 0.938
1025 7 0.0587395 0.945373 0.938
1083 6 0.004 0.925 0.896
1084 7 0.0207395 0.946627 0.896
1085 7 0.0207395 0.903373 0.896
1113 6 0.207 0.952 0.83
1114 7 0.223739 0.973627 0.83
1115 7 0.223739 0.930373 0.83
1620 6 0.226 0.752 0.99
1621 7 0.242739 0.773627 0.99
320 1 0.265 0.773 0.811
321 3 0.265 0.801571 0.811
323 1 0.345 0.773 0.811
324 3 0.345 0.801571 0.811
326 2 0.385 0.773 0.811
327 1 0.425 0.773 0.811
328 3 0.425 0.801571 0.811
478 1 0.327 0.868 0.946
479 3 0.327 0.896571 0.946
480 3 0.327 0.839429 0.946
481 2 0.367 0.868 0.946
482 1 0.407 0.868 0.946
483 3 0.407 0.896571 0.946
484 3 0.407 0.839429 0.946
485 1 0.487 0.868 0.946
486 3 0.487 0.896571 0.946
487 3 0.487 0.839429 0.946
1227 6 0.352 0.969 0.916
1228 7 0.368739 0.990627 0.916
1229 7 0.368739 0.947373 0.916
1254 6 0.3 0.877 0.88
1255 7 0.316739 0.898627 0.88
1256 7 0.316739 0.855373 0.88
1292 7 0.326739 0.994373 0.885
1371 6 0.317 0.867 0.764
1372 7 0.333739 0.888627 0.764
1373 7 0.333739 0.845373 0.764
1401 6 0.472 0.761 0.983
1402 7 0.488739 0.782627 0.983
1535 7 0.312739 0.993373 0.99
35 4 0.739 0.009 0.201
590 1 0.519 0.05 0.04
591 3 0.519 0.0214286 0.04
592 3 0.519 0.0785714 0.04
595 1 0.559 0.05 0.04
596 3 0.559 0.0785714 0.04
597 3 0.559 0.0214286 0.04
598 2 0.599 0.05 0.04
599 1 0.639 0.05 0.04
600 3 0.639 0.0785714 0.04
601 3 0.639 0.0214286 0.04
602 1 0.719 0.05 0.04
603 3 0.719 0.0785714 0.04
604 3 0.719 0.0214286 0.04
993 6 0.605 0.16 0.089
994 7 0.621739 0.181627 0.089
995 7 0.621739 0.138373 0.089
1327 7 0.543739 0.00462715 0.139
1397 7 0.640739 0.248373 0.086
1540 7 0.526739 0.000627152 0.242
1656 6 0.724 0.206 0.03
1657 7 0.740739 0.227627 0.03
1658 7 0.740739 0.184373 0.03
1899 6 0.548 0.128 0.193
1900 7 0.564739 0.149627 0.193
1901 7 0.564739 0.106373 0.193
32 1 0.779 0.009 0.201
34 3 0.779 0.0375714 0.201
37 1 0.819 0.009 0.201
38 3 0.819 0.0375714 0.201
40 2 0.859 0.009 0.201
41 1 0.899 0.009 0.201
42 3 0.899 0.0375714 0.201
44 1 0.979 0.009 0.201
45 3 0.979 0.0375714 0.201
605 2 0.759 0.05 0.04
606 1 0.799 0.05 0.04
607 3 0.799 0.0785714 0.04
608 3 0.799 0.0214286 0.04
609 1 0.879 0.05 0.04
610 3 0.879 0.0785714 0.04
611 3 0.879 0.0214286 0.04
612 2 0.919 0.05 0.04
613 1 0.959 0.05 0.04
614 3 0.959 0.0785714 0.04
615 3 0.959 0.0214286 0.04
616 1 0.999 0.05 0.04
617 3 0.999 0.0785714 0.04
618 3 0.999 0.0214286 0.04
1014 6 0.837 0.15 0.124
1015 7 0.853739 0.171627 0.124
1016 7 0.853739 0.128373 0.124
1212 6 0.858 0.189 0.033
1213 7 0.874739 0.210627 0.033
1214 7 0.874739 0.167373 0.033
1440 6 0.938 0.241 0.131
1442 7 0.954739 0.219373 0.131
1590 6 0.961 0.118 0.211
1591 7 0.977739 0.139627 0.211
1592 7 0.977739 0.0963728 0.211
1766 7 0.936739 0.249373 0.016
1893 6 0.925 0.14 0.085
1894 7 0.941739 0.161627 0.085
1895 7 0.941739 0.118373 0.085
364 2 0.509 0.369 0.132
365 1 0.549 0.369 0.132
366 3 0.549 0.397571 0.132
367 3 0.549 0.340429 0.132
368 1 0.589 0.369 0.132
369 3 0.589 0.397571 0.132
370 3 0.589 0.340429 0.132
371 4 0.629 0.369 0.132
372 5 0.629 0.397571 0.132
719 1 0.507 0.431 0.015
720 3 0.507 0.459571 0.015
721 3 0.507 0.402429 0.015
722 2 0.547 0.431 0.015
723 1 0.587 0.431 0.015
724 3 0.587 0.459571 0.015
725 3 0.587 0.402429 0.015
726 1 0.667 0.431 0.015
727 3 0.667 0.459571 0.015
728 3 0.667 0.402429 0.015
729 2 0.707 0.431 0.015
730 1 0.747 0.431 0.015
731 3 0.747 0.459571 0.015
732 3 0.747 0.402429 0.015
1395 6 0.624 0.27 0.086
1396 7 0.640739 0.291627 0.086
1479 6 0.707 0.297 0.134
1480 7 0.723739 0.318627 0.134
1481 7 0.723739 0.275373 0.134
1554 6 0.629 0.47 0.076
1555 7 0.645739 0.491627 0.076