LAMMPS data file via write_data, version 8 Feb 2023, timestep = 100000

1952 atoms
7 atom types
1600 bonds
6 bond types
2016 angles
9 angle types
1088 dihedrals
14 dihedral types

-13.201288390427004 13.201288390427004 xlo xhi
-13.201288390427004 13.201288390427004 ylo yhi
-13.201288390427004 13.201288390427004 zlo zhi

Masses

1 12.011
2 15.9994
3 1.008
4 15.9994
5 1.008
6 15.9994
7 1.008

Pair Coeffs # lj/cut/tip4p/long

1 0.056 3.58141
2 0.1 2.93997
3 0.035 2.38761
4 0.192 3.14487
5 0.046 0.40001
6 0.185199 3.1589
7 0 0

Bond Coeffs # harmonic

1 222.35 1.53
2 308.79 1.1111
3 359.76 1.1415
4 427.715 1.142
5 544.635 0.96
6 0 0.9572

Angle Coeffs # charmm

1 50 109 0 0
2 26.5 110.1 22.53 2.179
3 45 111.5 0 0
4 13.0258 109.4 0 0
5 35.5 109 5.4 1.802
6 55 108.89 0 0
7 75.7 110.1 0 0
8 95 109.7 0 0
9 0 104.52 0 0

Dihedral Coeffs # charmm

1 0.57 1 0 0
2 0.29 2 0 0
3 0.43 3 0 0
4 0.59 1 180 0
5 1.16 2 0 0
6 0.12 1 0 0
7 0.42 2 0 0
8 0.29 3 0 0
9 2.87 1 180 0
10 0.03 2 0 0
11 0.23 3 0 0
12 1.36 1 180 0
13 0.16 2 0 0
14 1.01 3 0 0

Atoms # full

11 1 3 0.09 -3.374526547641489 -0.9341960440520953 -7.007043553591913 0 1 1
10 1 1 -0.01 -2.32851891490278 -0.5822794479796602 -6.970571998476442 0 1 1
1242 116 6 -1.054 -1.163947204295333 -6.022638019250858 -10.342414719929963 0 1 1
907 30 3 0.09 -11.402501862074867 -7.590194060373177 -12.820443751665367 1 1 1
1313 139 7 0.527 -12.327682684789123 -6.4134085281257525 -4.979137483235094 1 1 1
791 26 2 -0.34 -12.645153581744953 -12.570599643838666 -3.8083869746153862 1 1 0
116 4 2 -0.34 -8.456155573167614 -1.2715234587020987 -0.13937625401761267 1 1 0
1470 192 6 -1.054 -7.253297408093543 -10.37154387884204 -6.074978862891572 1 1 1
452 15 3 0.09 -1.4263423545189529 -4.162294699398739 -12.055832006853732 1 0 1
1368 158 6 -1.054 -10.442639163433778 -9.009670291889426 -7.58801796574877 1 1 1
1 1 1 0.05 -1.1803797128785476 -1.4475255288283613 -4.171116710000591 0 1 1
309 10 4 -0.65 -7.855052739298382 -9.029140748751225 -3.691050071556516 1 1 0
7 1 3 0.09 -3.2286490884146826 -1.3933706216829123 -4.850444534084897 0 1 1
148 5 1 -0.01 -4.007000618010135 -12.937030255484638 -10.568245649933475 1 1 1
1444 183 7 0.527 -7.921025744689264 -8.740603563454146 -10.94648038459618 1 1 1
1214 106 7 0.527 -7.959249219942408 -0.8599298362302115 -11.579441011467123 1 1 1
119 4 3 0.09 -7.119614218730789 -1.3947533565507229 -1.4105337281885753 1 1 0
1803 303 6 -1.054 -6.319529108599338 -7.113011184978225 -5.631623481530828 1 1 0
1249 118 7 0.527 -0.5749279254331725 -11.426743820243543 -0.48211054758886007 0 1 0
1927 344 7 0.527 -11.198506810538552 -2.3519891433056763 -7.880322118135339 0 1 0
118 4 3 0.09 -8.685673444153878 -0.5267022700588218 -2.0258562101146325 1 1 0
308 10 3 0.09 -9.46669382700316 -9.261426496300526 -2.803980907700822 1 1 0
6 1 1 -0.01 -2.328427826543484 -0.7065148586869476 -4.990549395029728 0 1 1
298 10 3 0.09 -6.897421455216205 -4.427443775007973 -0.8688976320069504 1 1 0
1893 333 6 -1.054 -4.544426962306034 -2.3989180023475107 -0.18342482681560845 1 1 1
1739 281 7 0.527 -10.287039465547043 -2.928494778364872 -10.915455058208643 1 1 1
1394 166 7 0.527 -5.404913080062471 -2.8636469217733005 -3.6239786135608725 0 0 0
1140 82 6 -1.054 -7.768361115014746 -2.735479901855747 -10.781054494700385 1 0 1
1178 94 7 0.527 -0.6735927839477025 -3.7266196331279353 -6.022581705621254 0 1 0
301 10 3 0.09 -8.412225787998892 -4.970842684250222 -2.5021044402584263 1 1 0
1853 319 7 0.527 -7.707265288878175 -6.391162569587187 -11.271485238537641 1 1 1
890 29 3 0.09 -4.821884866917335 -6.331994995327564 -2.6308791903364384 1 1 1
1722 276 6 -1.054 -6.940768449356766 -10.725458821684256 -11.001065001857 1 1 1
897 29 3 0.09 -3.102139906928807 -3.67133059040577 -4.2291633536574835 1 1 1
793 26 3 0.09 -11.268473685601926 -11.51886860353988 -4.745815102458893 1 1 0
871 29 3 0.09 -4.567353115844359 -5.977589726258803 -9.367031236482852 1 1 1
1468 191 7 0.527 -9.997700534645462 -12.241100663132622 -9.384819948864795 2 1 1
4 1 4 -0.65 -0.5688699581735417 -2.2608405117091124 -4.70403398040788 0 1 1
792 26 1 -0.01 -11.853614545409506 -11.702097979484686 -3.8057500634927717 1 1 0
896 29 3 0.09 -1.5138748857965219 -4.737997647896798 -4.565912519285753 1 1 1
1115 73 7 0.527 -6.941437873940997 -0.13375347114489244 -6.820255574827098 1 0 0
1738 281 7 0.527 -11.139224503321682 -2.4861658916467295 -9.744983410881012 1 1 1
1392 166 6 -1.054 -5.17156637455391 -2.2324345117628184 -2.9432839403282625 0 0 0
1193 99 7 0.527 -0.09902822198651151 -9.56540591384647 -10.793452935622541 0 0 1
1779 295 6 -1.054 -2.618205652871419 -8.054591596432726 -12.356086397793351 1 1 1
1017 41 6 -1.054 -13.148198677188914 -6.793766261108804 -10.657768311426382 1 1 1
880 29 3 0.09 -3.003157622760268 -9.556689279872918 -7.108255744954271 1 1 1
1360 155 7 0.527 -1.168155632951894 -9.538915336726529 -0.40253084363079594 0 1 0
900 30 1 0.05 -10.396395604690216 -5.7509610438418015 -13.188902754648668 1 1 1
1044 50 6 -1.054 -12.992497171575133 -10.453370320313818 -6.857316977476006 1 2 1
797 26 3 0.09 -10.73861494623481 -10.664812770838383 -2.2863465401457503 1 1 0
1393 166 7 0.527 -5.336369989733551 -1.3778699113900394 -3.3417611466625594 0 0 0
1575 227 6 -1.054 -4.928914838504486 -11.90475363352789 -6.621464214182608 0 2 1
1472 192 7 0.527 -6.3348080756691365 -10.566754133913767 -6.260707993556099 1 1 1
296 10 1 -0.01 -7.234351229482399 -5.517199318203876 -0.6931393122902989 1 1 0
152 5 3 0.09 -3.948380109192751 -10.775054255256025 -11.13886077058138 1 1 1
799 26 1 -0.01 -9.583557200890077 -12.428664713598293 -1.3566812193621143 1 1 0
113 4 1 -0.01 -8.949042802449013 -2.3093947502694014 -0.30064181867346385 1 1 0
336 11 3 0.09 -3.543470488237716 -12.07773903262461 -1.9838507540065926 1 1 1
1899 335 6 -1.054 -7.740598474459206 -6.090494508407449 -8.107237108618992 1 1 1
891 29 2 -0.34 -2.8268581242172566 -6.339274476066413 -2.769253672368725 1 1 1
1869 325 6 -1.054 -0.22384464559284645 -1.9947545265223425 -10.441199171307119 1 1 2
2 1 3 0.09 -1.667755158676787 -1.9168594389495244 -3.3178363265413733 0 1 1
125 5 1 0.05 -1.4718657467312148 -12.217697003183659 -4.9352085616125745 1 1 1
1721 275 7 0.527 -3.0137766199202343 -2.674387739694261 -9.674175328798587 1 0 1
881 29 1 -0.01 -3.609797820753 -8.918824982366296 -5.14644595054069 1 1 1
872 29 4 -0.65 -3.6182042692216623 -5.316690551548852 -8.001217337895454 1 1 1
1781 295 7 0.527 -3.537039056572363 -8.202597636040881 -12.579837268321889 1 1 1
887 29 3 0.09 -3.277669498803048 -8.978703182965198 -2.7904268247900514 1 1 1
114 4 3 0.09 -9.286818790857152 -2.6949543274668972 -1.2311425543749817 1 1 0
1443 183 6 -1.054 -8.341048912692338 -8.116322219655814 -11.538154611447277 1 1 1
1342 149 7 0.527 -10.536869601754999 -6.8541728659826076 -6.817069013038676 1 1 1
1076 60 7 0.527 -8.449462979436301 -10.811648258933044 -12.777267661373704 1 0 1
9 1 2 -0.34 -1.9428253384649334 -0.1937676851102239 -5.947738666914158 0 1 1
893 29 3 0.09 -3.632910642539951 -4.650292507435079 -2.3837053017437846 1 1 1
1557 221 6 -1.054 -8.754284374813707 -11.417152626597897 -8.417958180403774 1 1 1
1904 336 7 0.527 -12.009738041039217 -1.6121825402871117 -1.2820864958706846 2 1 0
1445 183 7 0.527 -9.277833954582796 -8.288283937440724 -11.442823626419857 1 1 1
155 5 5 0.42 -4.4957187741471625 -11.580373268782878 -8.64618975240408 1 1 1
1723 276 7 0.527 -7.3240738463551684 -11.597669539974152 -10.908595909715809 1 1 1
796 26 3 0.09 -11.810842674164585 -11.82166692799592 -1.6004203302230824 1 1 0
1428 178 6 -1.054 -7.938055365761653 -3.433456709075786 -6.215669972924146 1 1 1
1888 331 7 0.527 -12.321932935784641 -4.991446490473823 -1.5554615426581542 1 1 1
1900 335 7 0.527 -8.583509240534324 -6.102331340173833 -7.653820735134013 1 1 1
1843 316 7 0.527 -6.991381201608886 -4.538998894522356 -12.526390794936267 0 0 1
1516 207 7 0.527 -0.8166772463549048 -10.650454964619033 -7.2416631702580405 0 0 1
151 5 1 0.05 -3.83063401445955 -11.401565255242192 -10.212532546704196 1 1 1
449 15 3 0.09 -2.7937601443644873 -5.7269308117870255 -12.91233996699635 1 0 1
874 29 1 -0.01 -3.689325855718776 -7.564435648261366 -8.018558324943484 1 1 1
892 29 1 -0.01 -2.823059505058799 -5.190078296113661 -2.80368876912501 1 1 1
1430 178 7 0.527 -8.006135383886582 -4.141561683916962 -6.856121001533925 1 1 1
1608 238 6 -1.054 -7.637143086686697 -1.5977759736637793 -8.327646039569846 1 1 1
303 10 1 -0.01 -8.901351440947717 -7.156740863997255 -3.185800776726854 1 1 0
1902 336 6 -1.054 -11.672099585228233 -1.6528706323998055 -2.1768321824461285 2 1 0
300 10 3 0.09 -6.840721975226906 -5.641909310788622 -2.837280737810822 1 1 0
5 1 5 0.42 -0.2721130482115406 -1.7570964352944607 -5.485276460825178 0 1 1
901 30 3 0.09 -9.504026650964454 -5.953667381281823 -12.491901901718284 1 1 1
154 5 4 -0.65 -4.598474334767108 -11.01976817513652 -9.427505918247322 1 1 1
1609 238 7 0.527 -8.502471574968135 -1.1985189410787704 -8.238060770843969 1 1 1
870 29 3 0.09 -5.22424211469981 -6.047617831242497 -7.710135461654574 1 1 1
1367 157 7 0.527 -10.721083446818811 -10.996168325618303 -11.869730780338974 1 1 1
1903 336 7 0.527 -12.454298773884364 -1.6983647557422081 -2.726668304355673 2 1 0
1199 101 7 0.527 -1.0941013388010266 -0.11422974030465305 -11.229468105084148 1 -1 1
1142 82 7 0.527 -7.682658474862001 -3.6828234254395156 -10.67418911049999 1 0 1
1191 99 6 -1.054 -0.9389743323820916 -10.018576854175802 -10.720297387956148 0 0 1
1887 331 6 -1.054 -12.203999968135046 -4.529842822889071 -2.3856656033591097 1 1 1
128 5 4 -0.65 -1.6791425208859678 -11.917479360022543 -5.9809253284846875 1 1 1
1248 118 6 -1.054 -0.5655619501451952 -10.858329336582262 -1.252202882606694 0 1 0
127 5 3 0.09 -2.1035441389024516 -11.553937990244313 -4.268917669312756 1 1 1
1177 94 7 0.527 -0.99772023261764 -4.169324448754201 -7.4335502059402545 0 1 0
899 29 5 0.42 -3.1520515000618925 -6.231474886737779 -4.815776103928931 1 1 1
888 29 1 -0.01 -3.8131207733779764 -6.8745665070863975 -2.386458852266351 1 1 1
886 29 3 0.09 -4.972013750371504 -8.606026976697512 -3.186650813964098 1 1 1
1226 110 7 0.527 -5.260290837844988 -9.489603786978728 -13.034873862991603 0 1 0
1373 159 7 0.527 -4.79461173133198 -4.72273484139512 -4.776525568674412 1 1 1
1312 139 7 0.527 -12.470952523388242 -6.428693103984304 -3.472114473339815 1 1 1
1370 158 7 0.527 -9.694479997822476 -9.606101984586598 -7.615443018655995 1 1 1
1901 335 7 0.527 -7.235412346798219 -6.790066560751308 -7.692977537118316 1 1 1
305 10 3 0.09 -9.881915828616783 -6.977360631058268 -2.770713061865928 1 1 0
306 10 1 0.05 -8.92426545582711 -8.654502589822318 -3.5917055601853765 1 1 0
3 1 3 0.09 -0.46499828565868384 -0.7552579333052964 -3.6522864600588427 0 1 1
885 29 1 -0.01 -3.9283507198482717 -8.204412455348336 -3.2179974199737025 1 1 1
1831 312 7 0.527 -5.239586443818649 -1.1061616127714924 -10.411528965552518 1 1 0
1635 247 6 -1.054 -10.892513584270157 -8.189222782913856 -10.381983538502613 1 1 1
1727 277 7 0.527 -11.269521603532445 -4.281889154199952 -6.212724511739371 0 0 1
884 29 2 -0.34 -3.4196214639924136 -8.089391554261645 -4.321802350142514 1 1 1
1851 319 6 -1.054 -7.294048966528147 -5.580602727777823 -10.974045966380071 1 1 1
334 11 1 -0.01 -3.5907563554305124 -12.880382204008482 -1.1704193842934263 1 1 1
1895 333 7 0.527 -4.502275761339773 -2.4793126962749206 -1.1363072485332975 1 1 1
1467 191 6 -1.054 -10.710489116939177 -12.700783571540663 -9.828496582588766 2 1 1
115 4 3 0.09 -8.05693347859117 -2.9061862141732053 -0.07617829538048682 1 1 0
882 29 3 0.09 -4.605777063664892 -9.260674201767081 -5.195069595957296 1 1 1
1926 344 6 -1.054 -10.645922679106146 -1.6938610741664135 -8.30191830167489 0 1 0
794 26 3 0.09 -12.581584684869993 -10.828242678506758 -3.7790175772539083 1 1 0
1341 149 6 -1.054 -10.446284595310313 -5.903214222561853 -6.877872685512251 1 1 1
1524 210 6 -1.054 -13.066123870114376 -0.5543775438312295 -0.09143424327160332 1 0 0
1852 319 7 0.527 -7.340454860208139 -5.624017108081697 -10.0189613442687 1 1 1
1517 207 7 0.527 -0.7584970477457524 -10.330538379459409 -8.720225459421346 0 0 1
12 1 3 0.09 -1.7263206319469422 -1.4968720242851692 -7.283973866008711 0 1 1
1371 159 6 -1.054 -5.738581974888358 -4.564464884404549 -4.786321230316597 1 1 1
1176 94 6 -1.054 -0.2635972544515397 -4.001531216987747 -6.842674610332877 0 1 0
1365 157 6 -1.054 -11.524178095985956 -10.692888782102647 -11.446309704707721 1 1 1
384 13 3 0.09 -0.4205162836363616 -7.878730533509909 -2.646365835920596 1 1 1
1637 247 7 0.527 -10.4775789011223 -8.095051052453798 -9.524553669729258 1 1 1
1610 238 7 0.527 -7.455156704970901 -1.9721093926843842 -7.465682856053718 1 1 1
877 29 2 -0.34 -3.741952746428268 -7.696566687801836 -6.898563750312586 1 1 1
1725 277 6 -1.054 -11.809713963392085 -3.508663419411292 -6.375632999973808 0 0 1
1372 159 7 0.527 -6.111163050509948 -5.358915231006527 -5.168756974440891 1 1 1
875 29 3 0.09 -4.337263228935473 -8.29062384635295 -8.53678942782429 1 1 1
1559 221 7 0.527 -8.058003130981533 -12.07205442487044 -8.468167956495787 1 1 1
149 5 3 0.09 -4.868549485669872 -12.933511059929163 -11.300690986228606 1 1 1
1797 301 6 -1.054 -10.890201737495811 -0.6807728061778828 -5.66760355680151 1 1 1
788 26 1 -0.01 -12.938618829722943 -13.032181020854036 -4.859811071227206 1 1 0
1726 277 7 0.527 -12.433989662210083 -3.4948623448847957 -5.650157868447011 0 0 1
1804 303 7 0.527 -6.6522284498864614 -7.658394779354769 -4.9188170696828895 1 1 0
1820 308 7 0.527 -12.945064294011019 -3.524143774048639 -11.241495861970124 1 1 1
798 26 2 -0.34 -10.143625379170558 -12.454580724326894 -2.3571648184259573 1 1 0
1110 72 6 -1.054 -5.657990634402617 -12.828365805903884 -3.9741435308042554 1 1 1
310 10 5 0.42 -7.574272503867483 -9.188485039764746 -2.7790302975187515 1 1 0
883 29 3 0.09 -2.9637937861249615 -9.77773150047133 -4.800502619223048 1 1 1
1811 305 7 0.527 -3.9449768497656397 -0.49522625408401844 -0.6875233085313717 1 1 1
801 26 3 0.09 -8.938834843958428 -11.51871465567157 -1.2538412281897937 1 1 0
790 26 3 0.09 -12.216709106666528 -13.14513976487741 -5.733156880142868 1 1 0
299 10 1 -0.01 -7.678201174314724 -5.80396051915228 -2.173622795366983 1 1 0
878 29 1 -0.01 -3.1288320302115196 -8.55144453815527 -6.530115113796147 1 1 1
879 29 3 0.09 -2.050188883501818 -8.25549150199394 -6.429795243432689 1 1 1
1805 303 7 0.527 -5.36889452828328 -7.216664725745896 -5.589493541076802 1 1 0
1577 227 7 0.527 -4.008505064346853 -12.085533863759128 -6.812224401890617 0 2 1
1469 191 7 0.527 -11.209252471003014 -12.008460915605685 -10.26225868892563 2 1 1
1369 158 7 0.527 -11.208157524970561 -9.584131844143077 -7.602182354210328 1 1 1
1515 207 6 -1.054 -0.409748605638077 -10.05616222562033 -7.8720997472272165 0 0 1
1051 52 7 0.527 -5.947028733429979 -9.089217545318986 -0.2945682738616995 1 1 1
1636 247 7 0.527 -11.66465748203168 -7.6252194367324115 -10.338175836175619 1 1 1
126 5 3 0.09 -0.3554197141581348 -11.95016068184094 -4.8830161606747495 1 1 1
1780 295 7 0.527 -2.6460263846351513 -7.446251249082379 -11.617592570337768 1 1 1
795 26 1 -0.01 -11.098914079086134 -11.713358523663544 -2.4747278974286733 1 1 0
307 10 3 0.09 -9.493088076991722 -8.87812224289733 -4.551911200896839 1 1 0
15 1 3 0.09 -2.230286282304924 -0.08040688169258914 -9.023584422952709 0 1 1
1141 82 7 0.527 -7.768589815450334 -2.3922229992294 -9.887522363266037 1 0 1
1311 139 6 -1.054 -12.115188104511647 -6.932958858561052 -4.203806212311784 1 1 1
1798 301 7 0.527 -10.729752174904622 -1.6066029327405875 -5.850139884519823 1 1 1
1627 244 7 0.527 -12.99054837755942 -11.115828427872275 -10.64185624516428 1 1 1
1870 325 7 0.527 -0.8499685464367825 -2.3435220467751954 -9.80672682337799 1 1 2
800 26 3 0.09 -10.19675675658272 -12.537768818847965 -0.43224464529997775 1 1 0
117 4 1 -0.01 -8.011581271804644 -0.7839205285805981 -1.1323870909419487 1 1 0
1074 60 6 -1.054 -9.290736297486536 -11.076203664101499 -13.149416368962344 1 0 1
1737 281 6 -1.054 -11.07753152746319 -3.1559943772045678 -10.42597439895165 1 1 1
1366 157 7 0.527 -11.271701576954868 -9.881163195748211 -11.00632995445774 1 1 1
869 29 1 0.05 -4.321138091578371 -6.16486067736473 -8.30425341648888 1 1 1
129 5 5 0.42 -1.4818739616927985 -12.763827071688992 -6.46574490687902 1 1 1
1832 312 7 0.527 -3.9908292953497373 -0.9079027934016732 -11.244101705087273 1 1 0
1720 275 7 0.527 -3.0634090560799763 -4.041218183173717 -9.025184378624711 1 0 1
1429 178 7 0.527 -7.311272502817235 -3.7553115556293335 -5.567767566307474 1 1 1
876 29 3 0.09 -2.7856898038193716 -7.640674195361717 -8.659954794748902 1 1 1
873 29 5 0.42 -3.6111171968695075 -5.228700898711381 -7.040496976389828 1 1 1
302 10 2 -0.34 -8.14171652307134 -6.952692091183351 -2.266399117308506 1 1 0
1928 344 7 0.527 -10.605275370925717 -0.9749466121419204 -7.671256105750482 0 1 0
1471 192 7 0.527 -7.2500964793291445 -10.030760166735375 -5.180506291911712 1 1 1
1343 149 7 0.527 -10.54670771575035 -5.711708086172638 -7.810324113624477 1 1 1
304 10 3 0.09 -9.115280071781374 -6.5485614692564695 -4.067594802552291 1 1 0
1719 275 6 -1.054 -2.45306886948795 -3.3781318951203954 -9.347715611136937 1 0 1
1576 227 7 0.527 -5.094893665804646 -12.353772238864124 -5.792574391035635 0 2 1
1889 331 7 0.527 -12.13310628199954 -3.607564145856541 -2.1394927458021122 1 1 1
313 11 3 0.09 -9.026205303864035 -12.82573847745855 -4.954153138500606 1 1 1
1830 312 6 -1.054 -4.312610803942903 -1.3410652791556767 -10.45349940824706 1 1 0
889 29 3 0.09 -3.6934942616628916 -7.042892511275225 -1.2839931968802265 1 1 1
1799 301 7 0.527 -11.834509880848085 -0.5737771466688528 -5.781879587291413 1 1 1
895 29 1 0.05 -2.661701465710573 -4.70549249362341 -4.268945505322886 1 1 1
153 5 3 0.09 -2.774000828417414 -11.271117166983677 -9.812930011620509 1 1 1
1724 276 7 0.527 -6.241171605541049 -10.700328003336564 -10.348257424895076 1 1 1
1052 52 7 0.527 -6.9657101819524385 -8.077531047840191 -0.7748354381695641 1 1 1
894 29 3 0.09 -1.8487630520627167 -5.088380003978864 -2.2514378075682497 1 1 1
1243 116 7 0.527 -1.466498391910216 -5.1497172126765385 -10.092020951794108 0 1 1
898 29 4 -0.65 -3.3067030508078634 -5.285671153573371 -5.010640579797274 1 1 1
1050 52 6 -1.054 -6.648628520360925 -8.96653939522755 -0.9340468811762257 1 1 1
1558 221 7 0.527 -8.716665972643245 -11.095453192141449 -7.517225478075496 1 1 1
295 10 2 -0.34 -6.259006457740476 -6.125318911752625 -0.4297428759006081 1 1 0
1192 99 7 0.527 -1.5569003021899306 -9.455402161612216 -11.186373326538117 0 0 1
1244 116 7 0.527 -0.32343950833121937 -6.122682241207255 -9.895466281556065 0 1 1
1885 330 7 0.527 -6.3946450887252055 -11.487411574092206 -12.854718486048966 1 1 1
1198 101 7 0.527 -2.228119823732426 -0.6879498270775617 -12.052101339504736 1 -1 1
902 30 3 0.09 -11.12742566759795 -5.161407716195798 -12.594928391174072 1 1 1
1103 69 7 0.527 -9.105368299059059 -1.1160529371525545 -13.044002038714194 0 1 1
451 15 1 -0.01 -1.237289829771564 -4.069999161249212 -13.19392786579918 1 0 1
448 15 3 0.09 -3.9777153522784605 -4.3196869611891575 -13.161896267707709 1 0 1
150 5 3 0.09 -3.134105303574442 -13.190576581413255 -11.202473611160745 1 1 1
1172 92 7 0.527 -0.7242658171381535 -3.3988046582583404 7.327877030349361 1 0 0
287 10 3 0.09 -7.966154741619855 -7.3406543633645205 3.165949529826614 1 1 0
1884 330 6 -1.054 -5.959361794308623 -11.499537671804962 12.695446180325478 1 1 0
1881 329 6 -1.054 -1.7590154314068531 -0.8861211790674943 8.682556188678445 1 1 1
1464 190 6 -1.054 -11.00426545363007 -10.541378451459607 1.3000415274192196 1 0 1
655 22 4 -0.65 -11.300569695977337 -5.442173402195292 8.132795593077256 2 1 0
446 15 3 0.09 -4.20718659323772 -6.504434765878649 12.007906510854754 1 0 0
1562 222 7 0.527 -3.4281144130326027 -1.9459363500103013 4.913996313621775 1 1 0
1736 280 7 0.527 -1.1009126101411706 -10.096204745020405 11.828651103039482 1 2 0
281 10 3 0.09 -7.282786559030443 -10.144612820184884 1.700071481110454 1 1 0
104 4 3 0.09 -8.917705354676658 -5.074697432403601 2.971194221840884 1 1 0
1286 130 7 0.527 -5.608355206560845 -0.2427414846622291 5.434433485884027 1 0 0
1594 233 7 0.527 -1.2933961866341832 -12.594990758524503 12.130701605020176 0 0 0
1834 313 7 0.527 -9.237700822355858 -11.055064032364456 6.252039650229703 0 1 1
280 10 1 0.05 -8.008318562442426 -9.35858888220682 2.086084931664944 1 1 0
672 22 3 0.09 -11.692936445750972 -12.138797902037204 7.963232769907444 2 1 0
1276 127 7 0.527 -9.308907173131082 -7.68112562158138 6.947221837909433 2 1 0
670 22 3 0.09 -11.572137378209353 -11.181520686340935 5.919160359115976 2 1 0
1262 122 7 0.527 -11.888984554727168 -1.792253154231668 9.986504813430107 1 1 0
438 15 4 -0.65 -5.600270684384035 -3.5427736111176635 9.886085252682824 1 0 0
1075 60 7 0.527 -9.06058915141299 -11.66281267477175 12.532641668183372 1 0 0
450 15 2 -0.34 -2.213900833679876 -4.098492140364026 12.477266065586795 1 0 0
1094 66 7 0.527 -5.267234365329224 -1.8584395879462452 1.5101116346511514 1 1 1
100 4 3 0.09 -10.056050893519444 -7.0359010108795585 2.2753599633424333 1 1 0
291 10 3 0.09 -5.2961703699250675 -6.887523965823433 2.3333187593402602 1 1 0
730 24 1 -0.01 -1.9646399418510843 -6.093900186981991 5.725380474386602 1 1 0
905 30 1 -0.01 -10.818976462779753 -7.148471016705595 12.685974981654065 1 1 0
284 10 5 0.42 -8.112510111295762 -8.901868269381275 0.6408235374214044 1 1 0
1510 205 7 0.527 -4.784365951482604 -12.716882808073423 6.944699678865836 1 1 0
94 4 1 0.05 -11.639555519685835 -6.5092512204225965 0.7375354589619594 1 1 0
1091 65 7 0.527 -1.2693098182372307 -8.211260994577904 12.673789174257019 1 1 1
931 31 1 0.05 -3.743079329721729 -10.212452750276556 4.229172018279348 1 1 0
96 4 3 0.09 -12.45003267910767 -6.988232398892531 1.3714039894708154 1 1 0
682 22 5 0.42 -8.614654998993537 -9.258739415273515 8.374130915165344 2 1 0
1522 209 7 0.527 -3.140168642369913 -2.6222289780768975 12.885050932460151 0 0 0
935 31 5 0.42 -2.415762539013004 -9.818895304397266 3.5632043455196136 1 1 0
99 4 1 -0.01 -10.418638205069222 -6.1171158842375695 1.6504706300534213 1 1 0
1460 188 7 0.527 -4.535427050814034 -13.040285661014266 9.053644956026877 1 1 0
742 24 3 0.09 -0.611896625116799 -9.791237051293859 9.399595893904634 1 1 0
457 15 2 -0.34 -0.1682367446154025 -4.850566665090767 11.401639356187038 1 0 0
1523 209 7 0.527 -2.659893941224139 -1.5611199727472602 11.917961366816256 0 0 0
913 30 3 0.09 -12.65664393838992 -7.105960347508971 9.467013684463199 1 1 0
289 10 1 -0.01 -6.206429760038793 -6.581614064503951 1.828913527284442 1 1 0
292 10 1 -0.01 -5.766799103846228 -5.86587752206587 0.5341852573176702 1 1 0
1647 251 6 -1.054 -4.533260937263664 -1.41965658155695 8.35172871375398 1 0 0
732 24 3 0.09 -1.3027237746404907 -5.167129061959363 5.5741410038835415 1 1 0
677 22 3 0.09 -10.454679995432182 -11.74335353763427 9.90589232329806 2 1 0
676 22 3 0.09 -9.320573824939505 -12.044603111286207 8.55537415314407 2 1 0
1555 220 7 0.527 -1.1508662683602857 -12.994128943624307 1.7269527297619405 0 2 1
665 22 3 0.09 -12.438928584462795 -9.333138354165001 4.689498397893777 2 1 0
1505 203 7 0.527 -6.03159659023097 -8.789972463231356 6.6213323772438475 1 1 0
1170 92 6 -1.054 -1.0003672920857127 -2.6417657125142657 6.811267775373709 1 0 0
668 22 1 -0.01 -12.071211773188598 -10.510933548178004 6.6890489771932895 2 1 0
939 31 2 -0.34 -1.644081651205667 -10.061763875969099 4.862206602433671 1 1 0
95 4 3 0.09 -11.21261767695554 -7.298759710757445 0.04668066961212247 1 1 0
652 22 1 0.05 -11.672899033326846 -4.977292365306992 7.171498490276127 2 1 0
102 4 2 -0.34 -10.768651914981438 -5.205929147420641 2.3326356129575707 1 1 0
1451 185 7 0.527 -7.73071980790954 -3.160843062806272 9.79568007072419 1 0 1
1338 148 6 -1.054 -3.022526127916837 -4.171609603113545 0.9364575522919836 1 0 1
111 4 3 0.09 -10.655725160896223 -1.77536019383688 0.9014082970985058 1 1 0
1742 282 7 0.527 -4.135920310424622 -0.10810044447765499 2.76775786044721 1 0 0
1746 284 6 -1.054 -1.4521137133611735 -2.128795466232848 1.9696382004609116 1 0 0
1337 147 7 0.527 -0.4048188298981721 -0.24753752233431214 11.142686312793176 1 1 0
337 11 1 0.05 -3.7628753326760993 -12.378000796940317 0.2671877009470247 1 1 1
945 31 3 0.09 -0.40389237039185666 -9.839811194474057 2.5565836678513207 1 1 0
908 30 2 -0.34 -11.608069890876257 -6.975675178998352 11.853021766666364 1 1 0
1882 329 7 0.527 -2.594495767540721 -1.2820767778951634 8.930380342133438 1 1 1
671 22 1 -0.01 -11.621758241388232 -10.984483907986126 8.077047720229393 2 1 0
934 31 4 -0.65 -3.3273546096280437 -9.916641683031457 3.221961190463057 1 1 0
1879 328 7 0.527 -8.664273464730663 -1.0383636015936144 2.0969970315252997 1 0 0
443 15 2 -0.34 -3.7949439643185663 -4.981878309190925 10.732978718999716 1 0 0
714 24 1 0.05 -7.582302140277368 -5.579380019215528 6.387114256055154 1 1 0
1547 217 7 0.527 -4.390880503596421 -6.839003942937684 6.465986553783468 1 1 0
1544 216 7 0.527 -3.963333613485988 -9.587653357728193 10.97056511827453 1 1 0
1277 127 7 0.527 -10.439169058904849 -8.437821345693438 7.611900707109411 2 1 0
1203 103 6 -1.054 -4.297988830556896 -9.4241686662497 0.606003626608727 0 1 1
911 30 3 0.09 -11.188143105638558 -8.371047539633519 10.6660708434721 1 1 0
1285 130 7 0.527 -4.7792030824824945 -1.0093392671953243 6.442755313868682 1 0 0
675 22 1 -0.01 -9.854922337115246 -11.261800586302552 9.129855755191903 2 1 0
103 4 1 -0.01 -9.969280803399938 -4.714012914364359 3.035502900168341 1 1 0
1543 216 7 0.527 -4.411611628686218 -10.932932227029589 10.44032939104376 1 1 0
1646 250 7 0.527 -9.045257232287604 -2.0833672954839013 6.062295620842759 1 1 0
1204 103 7 0.527 -4.5728263392090085 -10.315395651683488 0.3905879461026398 0 1 1
1880 328 7 0.527 -9.40756816386853 -0.12904689438676975 3.0522636054255567 1 0 0
656 22 5 0.42 -11.039186712912924 -6.364598781494783 7.9288989344317695 2 1 0
733 24 1 -0.01 -1.5832802146915608 -6.535670230351179 7.152141400944908 1 1 0
465 15 5 0.42 -0.7705655054255338 -4.5391461788649075 9.794858822105846 1 0 0
436 15 3 0.09 -5.595442594515206 -4.384098885334801 8.278781021197355 1 0 0
1734 280 6 -1.054 -1.5961406661549038 -10.913168643919109 11.76911773284556 1 2 0
439 15 5 0.42 -5.1333427953052375 -3.6814672047728347 10.724513475433147 1 0 0
1511 205 7 0.527 -5.51367520619129 -11.40092755738163 7.112771355638811 1 1 0
664 22 1 -0.01 -11.845448139990442 -8.898980372646758 5.520655743799518 2 1 0
290 10 3 0.09 -6.667422152648227 -5.742879802891541 2.4967142846114427 1 1 0
661 22 1 -0.01 -12.313209217152743 -7.40083792682286 5.4205695157494365 2 1 0
1521 209 6 -1.054 -3.20485137105112 -1.6863515031104885 12.69485487124672 0 0 0
109 4 2 -0.34 -9.348902842881866 -2.911315359807885 1.7846475505353876 1 1 0
1092 66 6 -1.054 -5.532016407492098 -1.753226219587125 2.4239199314243827 1 1 1
1339 148 7 0.527 -2.3322311160348317 -3.5328724938057334 1.1145945919792162 1 0 1
1649 251 7 0.527 -4.882602524331993 -2.2009259591918386 8.780452061024684 1 0 0
936 31 1 -0.01 -2.5937390444091637 -10.624535465989588 5.206860590061082 1 1 0
1450 185 7 0.527 -9.212371693990246 -2.9698334211174178 9.550524990125561 1 0 1
454 15 1 -0.01 -0.1912898357241879 -5.068517760032982 12.587786143740162 1 0 0
738 24 3 0.09 -2.7624677796772232 -8.040843066314299 9.130581942953997 1 1 0
940 31 1 -0.01 -0.8608904627524598 -10.791072073224168 4.566861383258756 1 1 0
741 24 3 0.09 -1.8133295851585753 -10.078138719671342 8.013384818309335 1 1 0
1102 69 7 0.527 -9.967902302114707 -2.1638111926265626 12.687667983142243 0 1 0
1146 84 6 -1.054 -11.699941938704283 -0.7564118514854226 6.513059357561849 1 0 0
1093 66 7 0.527 -6.445383566501415 -1.4705843154058176 2.3781041222676187 1 1 1
435 15 1 0.05 -5.590138191643449 -4.582684578210532 9.381096398041857 1 0 0
107 4 3 0.09 -10.973992602020914 -2.8742166607130404 2.760932917980739 1 1 0
1561 222 7 0.527 -2.0156668269033435 -2.3464870281474663 5.283359593393831 1 1 0
1860 322 6 -1.054 -7.906176989154483 -0.7615492294098516 5.351195192062223 0 1 0
909 30 1 -0.01 -11.940810611260062 -7.9043181963989095 11.294944771976349 1 1 0
1545 217 6 -1.054 -4.758249388020721 -7.464009524324583 7.090992821547362 1 1 0
1275 127 6 -1.054 -9.76838701890631 -7.776375620481823 7.781506447234568 2 1 0
679 22 3 0.09 -9.038814436548272 -9.634304901181162 10.395755270795894 2 1 0
440 15 1 -0.01 -4.434034864241443 -5.528991162115731 9.845161329784366 1 0 0
444 15 1 -0.01 -3.5352653193151546 -5.668476217504194 11.622651060101292 1 0 0
112 4 3 0.09 -10.552838506392142 -3.446511172234768 0.48377417079318796 1 1 0
731 24 3 0.09 -1.7668419078089563 -6.931021617449794 5.025321624260384 1 1 0
1205 103 7 0.527 -4.343141961769113 -9.383387069639149 1.5612644015695594 0 1 1
437 15 3 0.09 -6.568739366545268 -5.046061894758919 9.746078857215606 1 0 0
736 24 2 -0.34 -2.0719337426435285 -7.570309089839795 7.592912651960676 1 1 0
1261 122 7 0.527 -11.578320378450133 -0.32654111251407336 9.769585164306259 1 1 0
680 22 3 0.09 -7.819045512273011 -11.061313155961638 10.12452923770949 2 1 0
1504 203 7 0.527 -6.998283460029115 -9.626007154451658 7.432776049291251 1 1 0
1509 205 6 -1.054 -4.878881992505706 -11.97471546771396 7.541758631657656 1 1 0
108 4 3 0.09 -9.584604075328695 -2.6383036055502025 3.6269476682027832 1 1 0
33 2 3 0.09 -12.453212159182716 -11.121835847166832 11.619070760819367 1 1 0
937 31 3 0.09 -2.75540376423527 -10.051658896217118 6.176024070403981 1 1 0
282 10 3 0.09 -8.481811326375993 -9.870499186833097 2.964366790885263 1 1 0
1089 65 6 -1.054 -0.8476597020810122 -8.34081952364008 11.82428880757985 1 1 1
288 10 2 -0.34 -6.921989637568002 -7.498976096239516 1.6145164303165789 1 1 0
1560 222 6 -1.054 -2.5391495744387313 -1.996116008256383 4.562643932154044 1 1 0
442 15 3 0.09 -3.743285266340635 -5.604170451441841 8.998119862585758 1 0 0
97 4 4 -0.65 -12.101311952407944 -5.614771031549944 0.21134881018538287 1 1 0
293 10 3 0.09 -5.5495615392199 -4.850310045827328 0.8475831939814764 1 1 0
1878 328 6 -1.054 -8.540801315988368 -0.28824963091322786 2.6786397436940277 1 0 0