LAMMPS data file via write_data, version 8 Feb 2023, timestep = 100000

1952 atoms
7 atom types
1600 bonds
6 bond types
2016 angles
9 angle types
1088 dihedrals
14 dihedral types

-13.09311944775502 13.09311944775502 xlo xhi
-13.09311944775502 13.09311944775502 ylo yhi
-13.09311944775502 13.09311944775502 zlo zhi

Masses

1 12.011
2 15.9994
3 1.008
4 15.9994
5 1.008
6 15.9994
7 1.008

Pair Coeffs # lj/cut/tip4p/long

1 0.056 3.58141
2 0.1 2.93997
3 0.035 2.38761
4 0.192 3.14487
5 0.046 0.40001
6 0.185199 3.1589
7 0 0

Bond Coeffs # harmonic

1 222.35 1.53
2 308.79 1.1111
3 359.76 1.1415
4 427.715 1.142
5 544.635 0.96
6 0 0.9572

Angle Coeffs # charmm

1 50 109 0 0
2 26.5 110.1 22.53 2.179
3 45 111.5 0 0
4 13.0258 109.4 0 0
5 35.5 109 5.4 1.802
6 55 108.89 0 0
7 75.7 110.1 0 0
8 95 109.7 0 0
9 0 104.52 0 0

Dihedral Coeffs # charmm

1 0.57 1 0 0
2 0.29 2 0 0
3 0.43 3 0 0
4 0.59 1 180 0
5 1.16 2 0 0
6 0.12 1 0 0
7 0.42 2 0 0
8 0.29 3 0 0
9 2.87 1 180 0
10 0.03 2 0 0
11 0.23 3 0 0
12 1.36 1 180 0
13 0.16 2 0 0
14 1.01 3 0 0

Atoms # full

283 10 4 -0.65 -7.226784811012267 -6.447942068946963 -3.1734553020356717 1 1 0
232 8 3 0.09 -9.570450747902282 -6.407692402799527 -5.174751152885797 1 1 0
125 5 1 0.05 -0.8567025381092765 -11.907579262661041 -7.948029471113842 1 1 1
1553 219 7 0.527 -1.4523479361650065 -2.2404365790091756 -2.4242066604064227 0 0 0
1862 322 7 0.527 -8.240987206652683 -3.548015528394874 -4.26669642587842 0 1 1
240 8 2 -0.34 -12.56011504604659 -4.818959561471001 -7.472031365648042 1 1 0
1740 282 6 -1.054 -7.748097108698268 -1.148764925543908 -6.454019880429332 1 0 0
1470 192 6 -1.054 -2.422968254983438 -6.0382389163137775 -5.376028640787842 1 1 1
128 5 4 -0.65 -1.5550600824246104 -12.655153469482574 -8.526444583717833 1 1 1
1359 155 6 -1.054 -2.22898085959784 -8.78559330784423 -6.279858691782212 0 1 0
1615 240 7 0.527 -10.351995058006827 -10.39648616389708 -0.41593771415726977 1 1 1
1346 150 7 0.527 -5.793694300715561 -11.6814292056433 -12.974911574117371 1 1 1
1203 103 6 -1.054 -1.2226303476599707 -10.416572833104322 -4.168057450903303 0 1 1
247 8 4 -0.65 -12.340863632751024 -2.3437607382820023 -7.489438067951142 1 1 0
230 8 1 -0.01 -10.570649225958434 -6.936507947204226 -5.034177393141244 1 1 0
1246 117 7 0.527 -2.1202540652114212 -9.543853189046953 -11.22973749326944 0 2 1
349 12 3 0.09 -12.022256501094382 -11.49343299875537 -5.9603046958866726 2 1 1
1877 327 7 0.527 -3.96984826978246 -5.799418141048932 -8.024112003295418 1 1 1
3 1 3 0.09 -1.1481560731073692 -3.817342220908671 -6.8060855016656365 0 1 1
1919 341 7 0.527 -8.625211827091668 -5.9040991150271545 -9.069297684327726 2 1 1
298 10 3 0.09 -6.48061664612423 -11.503110417363324 -4.463962959837115 1 1 0
112 4 3 0.09 -9.842068226051673 -0.5075118236226022 -1.1899024257711197 1 1 0
937 31 3 0.09 -4.178581318095212 -11.030313121060875 -0.7498597582760507 1 1 0
935 31 5 0.42 -1.9685415654631342 -9.02439465542503 -1.037279309983763 1 1 0
1741 282 7 0.527 -7.140374541610106 -1.290204781499222 -7.179889762116637 1 0 0
379 13 3 0.09 -0.11325487364045372 -7.127429059889368 -0.49404044049680884 1 1 1
103 4 1 -0.01 -11.841734754224024 -3.529865719050356 -0.7083256532866482 1 1 0
1024 43 7 0.527 -4.254819615066076 -2.933702145977067 -6.255387501177217 1 0 1
300 10 3 0.09 -5.583920127233478 -9.72166734628144 -6.034473182293088 1 1 0
115 4 3 0.09 -7.523604798139365 -0.9510892452186699 -0.7476501547675891 1 1 0
1672 259 7 0.527 -10.879762021702632 -2.152485313058069 -3.79194650339549 1 1 1
1851 319 6 -1.054 -6.678602415351944 -3.1271769955719098 -12.574740201743747 1 1 1
1348 151 7 0.527 -10.103896383144006 -8.08559582844492 -9.273263703723 1 1 1
296 10 1 -0.01 -6.000523181925796 -10.575123327900846 -4.155728089035216 1 1 0
938 31 3 0.09 -2.8923666658078897 -11.680161970809717 -1.7456118084603265 1 1 0
956 31 3 0.09 -4.201973810341492 -5.037635501879683 -1.0272133047782006 1 1 0
1032 46 6 -1.054 -9.02749199945363 -11.295448198618605 -9.828349557503088 1 1 1
1167 91 6 -1.054 -0.5910473138400221 -2.410132255844717 -11.243391913995024 1 0 1
1347 151 6 -1.054 -10.644201407894704 -8.863351841613131 -9.134032190454718 1 1 1
307 10 3 0.09 -8.421796523790233 -11.708211533925702 -6.184420753922104 1 1 0
1707 271 6 -1.054 -4.6684461127775965 -7.128432653393988 -12.505269934659001 0 1 2
675 22 1 -0.01 -12.647383139739297 -12.033724373250642 -12.467724064636085 2 1 1
285 10 1 -0.01 -7.279557004612113 -7.299929296670962 -1.2038371458167862 1 1 0
1866 324 6 -1.054 -11.380965555124087 -1.6645756766236506 -10.877566912940924 0 1 1
106 4 1 -0.01 -11.340454865030816 -2.157813222281913 -0.15952642490261404 1 1 0
1727 277 7 0.527 -1.2980750776366659 -8.318331085206694 -9.12607298716068 0 0 1
309 10 4 -0.65 -9.390053054744065 -10.478335895126754 -5.122874697339356 1 1 0
1875 327 6 -1.054 -4.456566914926569 -6.589011664374688 -7.787751571256629 1 1 1
237 8 1 -0.01 -12.800234283019226 -5.908216500629521 -7.29332050700993 1 1 0
344 12 3 0.09 -12.565567966327322 -12.521120730156552 -7.973894365325061 2 1 1
1918 341 7 0.527 -9.936091931964702 -5.765108027806591 -9.813702607553783 2 1 1
960 31 4 -0.65 -1.7507457539262656 -6.239860929383549 -2.7395630068363204 1 1 0
1520 208 7 0.527 -5.304373475242416 -2.2117454680769484 -1.4215779597573572 1 0 0
1472 192 7 0.527 -2.3601768097439084 -6.129730500285497 -4.425289006052262 1 1 1
297 10 3 0.09 -4.883605892187893 -10.74727627095819 -4.176528090028826 1 1 0
228 8 3 0.09 -10.85434766842507 -5.691988561867945 -3.1865303981660205 1 1 0
1224 110 6 -1.054 -7.459687637977313 -5.1315845075615645 -7.843965295521773 0 1 0
1381 162 7 0.527 -6.050440053088964 -6.03781756125725 -4.497301599943324 0 0 0
1861 322 7 0.527 -8.064091612922685 -2.80191352776559 -5.572032900976026 0 1 1
1616 240 7 0.527 -10.501833157427841 -11.482500627651797 -1.459961195847642 1 1 1
1876 327 7 0.527 -4.486438991572983 -6.575162265124792 -6.831124621029722 1 1 1
1225 110 7 0.527 -6.565774906633308 -5.455857713162368 -7.953446050154996 0 1 0
1689 265 6 -1.054 -9.467072420746538 -0.8739738094791569 -8.882553963588798 1 0 1
325 11 3 0.09 -2.19774959086344 -12.897088281380054 -3.8560718712052644 1 1 1
127 5 3 0.09 -1.409191295279351 -11.322376946599187 -7.241782489245812 1 1 1
931 31 1 0.05 -3.1687269477976177 -9.533702692887003 -2.0459195554186334 1 1 0
1226 110 7 0.527 -7.571944961852926 -5.05247065380143 -6.896675213355366 0 1 0
958 31 3 0.09 -3.0056891940477772 -5.0719355566268085 -3.1633934016705627 1 1 0
1380 162 6 -1.054 -5.61613555051753 -5.844700705844023 -5.32814745344603 0 0 0
1361 155 7 0.527 -2.432328975753313 -7.987735894159008 -5.791706714585542 0 1 0
293 10 3 0.09 -6.497335991098728 -11.342718177011012 -1.7981508413702816 1 1 0
1653 253 6 -1.054 -11.224708281921382 -3.8473292788429294 -5.041558925229385 0 0 0
1494 200 6 -1.054 -8.396179150195385 -8.052956373223125 -11.885209675572112 1 1 1
1509 205 6 -1.054 -8.961230011053889 -10.710324393257665 -12.623929949732135 1 1 1
107 4 3 0.09 -12.000006827599728 -1.2915194406939658 -0.5486409686537854 1 1 0
1340 148 7 0.527 -6.036554037482058 -1.0230978828458994 -3.6575236513457465 1 0 1
1351 152 7 0.527 -4.738504488870737 -1.4405755204963864 -8.28156244809534 1 1 1
288 10 2 -0.34 -7.511830838940791 -8.318677148506838 -1.8099630094621837 1 1 0
1697 267 7 0.527 -3.318819358901811 -12.423724295636005 -7.8591215109663715 0 0 1
284 10 5 0.42 -7.796760952474785 -7.226747421443312 -3.2714467939016654 1 1 0
1072 59 7 0.527 -10.220152484851406 -4.76925872715162 -11.80067791623084 0 1 1
289 10 1 -0.01 -7.252154104931147 -9.377978310718033 -1.2970502724592023 1 1 0
1247 117 7 0.527 -2.9783495137340648 -9.658001366727285 -9.987760919941987 0 2 1
932 31 3 0.09 -3.9955341749690074 -8.881943876817033 -1.748461875879908 1 1 0
227 8 1 -0.01 -10.75866357537555 -6.788953950915695 -3.4994484613672494 1 1 0
4 1 4 -0.65 -1.0851402019331626 -2.337421252032385 -5.694012974195202 0 1 1
1852 319 7 0.527 -6.687821727800533 -3.181067804776566 -11.619109497095131 1 1 1
1551 219 6 -1.054 -2.3633447975577138 -1.966666227297992 -2.530758623911872 0 0 0
282 10 3 0.09 -6.539361348512348 -5.3906105478706765 -1.852434979218316 1 1 0
959 31 3 0.09 -1.8436840437588273 -4.52760751109151 -1.7969281135633288 1 1 0
1938 348 6 -1.054 -7.237874149108909 -3.254138987958841 -9.713915617462451 0 1 1
1378 161 7 0.527 -4.409353498002266 -8.28623120232123 -8.382412790970786 1 0 0
303 10 1 -0.01 -7.787361489316979 -9.659818477759684 -6.54890294860431 1 1 0
1944 350 6 -1.054 -12.423684887896643 -6.214478620083131 -10.686048766377999 1 0 0
224 8 3 0.09 -11.036422989410923 -8.191062330707773 -1.6515327591347972 1 1 0
1377 161 6 -1.054 -4.311841889883388 -9.216950367832517 -8.583590776220579 1 0 0
1647 251 6 -1.054 -6.5120771199502965 -10.504530216370764 -10.10808951644843 1 0 1
1843 316 7 0.527 -2.969159112004718 -3.7781793029957047 -10.644235600678009 0 0 1
1891 332 7 0.527 -9.059927511473395 -2.102591509564313 -2.5746121858206994 0 0 0
310 10 5 0.42 -8.733324605313886 -9.841717113356534 -4.79687653459141 1 1 0
301 10 3 0.09 -6.11158592250773 -8.446479881155085 -4.8815953365806095 1 1 0
1626 244 6 -1.054 -11.205544751081984 -11.549928185959178 -3.2132936466272675 1 1 1
1350 152 6 -1.054 -5.455591887784813 -1.9584430446572334 -7.915750718347533 1 1 1
1778 294 7 0.527 -12.745893332265986 -11.22731142020002 -1.85382981581642 1 1 1
236 8 3 0.09 -12.170730408762786 -7.834950081023595 -6.29866810070537 1 1 0
1245 117 6 -1.054 -2.066632874705663 -9.62894076019351 -10.277842640256058 0 2 1
281 10 3 0.09 -8.339096381909167 -5.605964264134209 -2.021288010438443 1 1 0
322 11 3 0.09 -4.548109468397671 -12.714764818599548 -3.4844792115110774 1 1 1
290 10 3 0.09 -6.306965140913532 -9.360931016419142 -0.6584124272628351 1 1 0
229 8 3 0.09 -9.775233417566973 -7.192152397100905 -3.052220946239858 1 1 0
1428 178 6 -1.054 -2.9426976389662673 -4.552427876919401 -8.742038313798144 1 1 1
248 8 5 0.42 -11.906497089069111 -2.938159105046717 -6.8503250610912545 1 1 0
2 1 3 0.09 -0.6652770182241685 -4.035762353393748 -5.171118091851267 0 1 1
1627 244 7 0.527 -10.662223766452492 -11.238411079770483 -3.937157089800717 1 1 1
1844 316 7 0.527 -2.615227716276019 -4.810521456528074 -11.693457297448527 0 0 1
235 8 3 0.09 -11.033701333982345 -7.176752984919249 -7.39468283681926 1 1 0
308 10 3 0.09 -9.63481759046325 -10.779940281891198 -7.038299139907319 1 1 0
934 31 4 -0.65 -2.1558463221092836 -8.988205563255615 -1.9904780461976017 1 1 0
305 10 3 0.09 -8.188842657119595 -8.68345163623642 -7.009307864234361 1 1 0
306 10 1 0.05 -8.912035013159564 -10.672620269012889 -6.207100746078453 1 1 0
1 1 1 0.05 -0.5445553563352146 -3.281221678554294 -6.003747729698494 0 1 1
1708 271 7 0.527 -5.134322649333523 -6.447137868590116 -12.990054030285888 0 1 2
1725 277 6 -1.054 -0.6881622666395568 -8.002906963020552 -8.45918970216205 0 0 1
1628 244 7 0.527 -11.790011160184509 -12.19459169500586 -3.6120759786841283 1 1 1
1709 271 7 0.527 -3.778200622590809 -6.789659325607677 -12.410851239380898 0 1 2
223 8 1 -0.01 -11.807118171603854 -7.465984296408247 -1.950817590183302 1 1 0
1777 294 7 0.527 -12.99559867147358 -11.255806328071106 -0.3609470185658683 1 1 1
343 12 3 0.09 -12.577728423049022 -10.904439136103926 -8.867458323934875 2 1 1
348 12 3 0.09 -11.728552452643399 -10.088937270270204 -6.95461922471243 2 1 1
292 10 1 -0.01 -6.895605117413581 -10.481989810885684 -2.3782221682991533 1 1 0
957 31 1 0.05 -2.423830113792885 -5.3921652920355045 -2.2781359297396744 1 1 0
226 8 2 -0.34 -11.794697057990508 -7.3581849729153745 -3.1239265848213407 1 1 0
1204 103 7 0.527 -1.5278240406746892 -9.831298679060009 -4.861260371422794 0 1 1
1430 178 7 0.527 -2.023133780138693 -4.805143782931745 -8.824233492495143 1 1 1
1648 251 7 0.527 -7.460743486146842 -10.62807828216898 -10.139510693968491 1 0 1
233 8 2 -0.34 -11.386842351276037 -6.350095454548774 -5.6065260276969 1 1 0
280 10 1 0.05 -7.3957382129429385 -6.065466562679303 -2.1382861642053808 1 1 0
286 10 3 0.09 -8.06447881707745 -7.242208409052564 -0.3611291756955364 1 1 0
1842 316 6 -1.054 -2.906555857445163 -3.9045152972624564 -11.590987611271162 0 0 1
1371 159 6 -1.054 -5.266335589216572 -0.3830002850334928 -12.417526922941533 1 1 1
961 31 5 0.42 -1.9333743218077952 -7.057826324830717 -2.230002435572942 1 1 0
954 31 1 -0.01 -3.4527796132885626 -5.9043554821055775 -1.2593611504290632 1 1 0
1893 333 6 -1.054 -11.32963016001138 -0.09586434419895795 -6.179896407516424 1 1 1
109 4 2 -0.34 -10.16990816921214 -2.03266363815073 -0.2469192342992308 1 1 0
1892 332 7 0.527 -8.514330675798483 -3.1322137448158767 -1.6081413703331204 0 0 0
1360 155 7 0.527 -3.004848314714744 -8.941867355871919 -6.818214650008919 0 1 0
1742 282 7 0.527 -7.234941537661184 -0.673547191169872 -5.800522981867685 1 0 0
1372 159 7 0.527 -5.117949084080365 -1.3215634850342575 -12.532851329485123 1 1 1
104 4 3 0.09 -12.920144725949713 -3.5257577227796446 -0.7350085625514602 1 1 0
1649 251 7 0.527 -6.154828140896451 -11.27694834747277 -10.546224888656525 1 0 1
1641 249 6 -1.054 -1.9704358470024577 -6.294220337937272 -12.528236653375128 0 1 1
287 10 3 0.09 -6.2617607264902295 -7.334157463153753 -0.8069774048985465 1 1 0
1345 150 7 0.527 -4.8521047438308855 -12.815061764319411 -12.628284577274302 1 1 1
1690 265 7 0.527 -9.617364473174042 -0.9780485885974226 -7.942979791500652 1 0 1
1349 151 7 0.527 -10.042913396861898 -9.598152402789223 -9.255441462729653 1 1 1
1344 150 6 -1.054 -5.53204951340895 -12.254637489386617 -12.25436068210289 1 1 1
1294 133 7 0.527 -0.10857683134934071 -10.994111716846303 -10.80037228283615 1 1 1
1071 59 6 -1.054 -10.507263829424183 -4.305884868695486 -11.01386729847352 0 1 1
294 10 3 0.09 -7.820681987103503 -10.821252513028728 -2.7469608688554885 1 1 0
231 8 3 0.09 -10.190312249951049 -7.944160660200814 -5.283965611507372 1 1 0
1519 208 7 0.527 -6.4960576880496985 -2.598603355974067 -2.2713384580126785 1 0 0
353 12 3 0.09 -12.734327225645309 -9.572419767274273 -4.66837506455864 2 1 1
1614 240 6 -1.054 -10.17630241594493 -11.324067451372564 -0.5738755098168049 1 1 1
936 31 1 -0.01 -3.1135626225037925 -10.797605970006483 -1.1193483108441473 1 1 0
1917 341 6 -1.054 -9.376107208537151 -6.409450911864808 -9.380737621406809 2 1 1
1860 322 6 -1.054 -8.433941536105745 -3.603746586155804 -5.202582023327664 0 1 1
939 31 2 -0.34 -2.208377339684999 -10.803379162079757 -0.4172559225106909 1 1 0
933 31 3 0.09 -3.3968099188367873 -9.794145345342356 -3.064221979854638 1 1 0
1352 152 7 0.527 -5.961374963952939 -2.2401185710283062 -8.678024568935584 1 1 1
1382 162 7 0.527 -5.462322703069016 -4.9002372636637315 -5.304700501992526 0 0 0
1726 277 7 0.527 -1.2079968218564883 -7.967078441437788 -7.6562528004453 0 0 1
1034 46 7 0.527 -9.468940405823304 -11.891651595142358 -9.223465962258926 1 1 1
1017 41 6 -1.054 -8.582928035439792 -1.1033317703941687 -12.705658798172099 1 1 1
1853 319 7 0.527 -7.360699305828514 -2.4896511606982816 -12.785746819504855 1 1 1
1025 43 7 0.527 -2.8309443175342377 -2.952768648694592 -5.741500991066001 1 0 1
669 22 3 0.09 -11.498995645081527 -8.303639848845283 -12.906569952915547 2 1 1
1518 208 6 -1.054 -5.567036297199195 -2.3750141150434807 -2.3274311861123618 1 0 0
1019 41 7 0.527 -8.072336017273258 -0.5537577628793429 -12.111114125897233 1 1 1
347 12 1 -0.01 -12.531022013539292 -10.735548869255434 -6.656563792262655 2 1 1
1890 332 6 -1.054 -8.338239869636078 -2.719658966183646 -2.4537239120912098 0 0 0
126 5 3 0.09 -0.6290031230958508 -11.11196490184678 -8.683536771384212 1 1 1
299 10 1 -0.01 -6.349787875056792 -9.47289651732201 -5.265487055576681 1 1 0
1673 259 7 0.527 -11.02821448221939 -0.9585966858563708 -2.87300388120031 1 1 1
1695 267 6 -1.054 -4.249378431469614 -12.391950252198306 -7.63715407626582 0 0 1
110 4 1 -0.01 -9.768137459557222 -0.9261766947745969 -0.21359739457258975 1 1 0
234 8 1 -0.01 -11.736209861323646 -6.831050793817209 -6.586095578677188 1 1 0
1939 348 7 0.527 -7.317860212526611 -3.7153850507955184 -8.879006256427228 0 1 1
1168 91 7 0.527 -1.2716979567561584 -2.988680592564993 -11.587216886715234 1 0 1
1073 59 7 0.527 -11.15192600188719 -4.889309101034584 -10.613559790405578 0 1 1
1868 324 7 0.527 -10.69501848144531 -1.1152706888619974 -11.256987421124595 0 1 1
1552 219 7 0.527 -2.753003965105906 -2.640865590060578 -3.0873915300193566 0 0 0
1023 43 6 -1.054 -3.6397422647419564 -3.464630532755132 -5.749409047476739 1 0 1
1895 333 7 0.527 -11.749913591972941 -0.7984081914942571 -6.675893506962697 1 1 1
1429 178 7 0.527 -2.931853102963343 -3.793809786159354 -8.15842860778606 1 1 1
1205 103 7 0.527 -1.5972413975544395 -10.053743016715497 -3.3654115760543757 0 1 1
302 10 2 -0.34 -7.438091371603834 -9.217283194274664 -5.5246410928700325 1 1 0
1379 161 7 0.527 -5.142342634867581 -9.462678401720385 -8.9911509747188 1 0 0
1471 192 7 0.527 -2.9462465959969695 -5.247512640388473 -5.506990335827378 1 1 1
105 4 3 0.09 -11.527238527688072 -3.749587594808313 -1.762642754884185 1 1 0
304 10 3 0.09 -7.126565496267115 -10.111473096511798 -7.281216014915307 1 1 0
1940 348 7 0.527 -8.043419437339928 -2.7417713923299605 -9.78316563243636 0 1 1
295 10 2 -0.34 -6.125214300607093 -10.050279521028894 -3.1060871238304557 1 1 0
225 8 3 0.09 -11.604848672302928 -6.6796527161129085 -1.1625401616910338 1 1 0
1696 267 7 0.527 -4.656290130903271 -11.935426748990537 -8.373515699932817 0 0 1
242 8 3 0.09 -12.586001046750184 -4.298754313086464 -9.179597554736391 1 1 0
1654 253 7 0.527 -10.378315468963066 -3.6378314552769933 -5.436462753787737 0 0 0
291 10 3 0.09 -8.122975145409907 -9.764971780290345 -0.6322696864799777 1 1 0
1033 46 7 0.527 -9.106649735782707 -11.718810571837595 -10.683169830292135 1 1 1
1655 253 7 0.527 -11.458777947078056 -4.697975578509389 -5.412815499569533 0 0 0
955 31 3 0.09 -4.016932290554211 -6.735154255090315 -1.7768275811509735 1 1 0
1338 148 6 -1.054 -5.986137790486491 -0.20297656329607427 -4.14852076591507 1 0 1
1636 247 7 0.527 -6.344489288460981 -9.20015639711416 -12.841896874015667 1 1 1
1441 182 7 0.527 -3.5432894844708773 -2.360588401095697 -0.8755179613895372 1 1 1
1495 200 7 0.527 -8.339364600579103 -7.902606381746549 -10.941606875760053 1 1 1
671 22 1 -0.01 -12.74273200127806 -9.997745526409155 -12.282698180711831 2 1 1
1671 259 6 -1.054 -10.48157219776471 -1.3092097370682652 -3.576190838114398 1 1 1
29 1 3 0.09 -0.5962220520835473 -1.687768617592294 -0.6635913588082101 0 1 1
102 4 2 -0.34 -11.189741380787966 -4.431847627748816 -0.16088150425171044 1 1 0
1373 159 7 0.527 -5.836920295819755 -0.32260136301833064 -11.651364887404583 1 1 1
1691 265 7 0.527 -10.300485915065046 -1.114879866300294 -9.287035439341476 1 0 1
677 22 3 0.09 -12.008874470421848 -12.388424229028638 -11.642058796199889 2 1 1
1496 200 7 0.527 -8.716848221914866 -7.224377653919924 -12.241366670190509 1 1 1
1820 308 7 0.527 -0.14038354934563202 -6.002273222924365 -8.56819207357674 1 1 1
324 11 3 0.09 -2.8965531024258624 -12.898977163569912 -5.453467187525273 1 1 1
953 31 2 -0.34 -2.8769921705627635 -6.465436889248451 -0.39079953482668905 1 1 0
673 22 3 0.09 -12.336905861974488 -9.818855502319234 -11.153469046310068 2 1 1
1867 324 7 0.527 -11.183990057784467 -2.5465886423301995 -11.192960446843257 0 1 1
129 5 5 0.42 -1.0627673596314295 -12.979339099793625 -9.27530656433846 1 1 1
1169 91 7 0.527 -0.07192531826474813 -2.1680598779230884 -12.010289945773254 1 0 1
5 1 5 0.42 -0.626616823374853 -1.9683915070685511 -4.900854040669493 0 1 1
1510 205 7 0.527 -9.019471272221235 -9.797626241060959 -12.341424435809316 1 1 1
1643 249 7 0.527 -1.7808392304651353 -7.2283928442865255 -12.615381102510346 0 1 1
1894 333 7 0.527 -10.687263112892259 -0.5425013843898583 -5.628444558224216 1 1 1
1946 350 7 0.527 -12.795684673931595 -5.986820483684461 -11.53810905491589 1 0 0
1771 292 7 0.527 -0.2200861448041902 -12.090741805744388 -2.6371494098401183 1 1 1
342 12 1 0.05 -12.938744725278491 -11.449201737856987 -7.949031075159098 2 1 1
674 22 2 -0.34 -12.196581570185984 -10.956023993807742 -12.753515184249848 2 1 1
1440 182 6 -1.054 -4.112824693603409 -2.1786581617885403 -0.12802189461868174 1 1 1
239 8 3 0.09 -12.94266480246611 -6.363247291069566 -8.214087374833703 1 1 0
1511 205 7 0.527 -8.08266157669328 -10.791035671110325 -12.995174486269034 1 1 1
1135 80 7 0.527 -0.020216744259968777 -0.4703477911665992 -6.435988363220764 0 1 2
1124 76 7 0.527 -8.493146779106183 -2.8472539670707278 9.353754430251604 1 0 0
95 4 3 0.09 -10.287987858191787 -5.239065075703772 2.26465993822257 1 1 0
464 15 4 -0.65 -9.810145651063507 -6.671384860200949 8.4695929571651 1 0 0
446 15 3 0.09 -5.241167247284399 -7.40989968094677 4.5848202903130275 1 0 0
1040 48 7 0.527 -1.8482914548040696 -5.05872578784674 9.825521498471764 1 1 1
737 24 1 -0.01 -10.402201080430869 -12.645631385472791 3.607133143102752 1 1 0
449 15 3 0.09 -5.56689622966078 -5.079920250482097 6.313111021462271 1 0 0
27 1 1 0.05 -0.29983774965901056 -0.7869788393169053 0.03689073824064515 0 1 1
1522 209 7 0.527 -0.9554897042989321 -2.65941759750487 5.47279139124362 0 0 0
1306 137 7 0.527 -4.974793402021877 -1.7707174809791457 7.979107773626049 1 1 0
1039 48 7 0.527 -1.105330978800085 -5.331299259251393 11.116093536795502 1 1 1
55 2 1 -0.01 -0.2717935776435336 -7.942877369948551 5.899953624531433 0 1 0
1781 295 7 0.527 -2.3772502849320674 -8.962276237935203 12.40550928025335 1 1 0
733 24 1 -0.01 -9.953032567019209 -11.074473925490715 4.7618099988846065 1 1 0
1571 225 7 0.527 -0.4577958445670216 -11.060026260192164 6.182909244700932 1 1 0
1583 229 7 0.527 -2.7499917441809067 -4.42304917122509 2.9777555168817944 0 0 0
722 24 2 -0.34 -5.350671817819263 -11.215542238896244 5.7686223331881425 1 1 0
452 15 3 0.09 -5.668679608736591 -5.675444996527409 8.481192021344834 1 0 0
1260 122 6 -1.054 -11.896975046277248 -3.478275087039904 6.6423072553630025 1 1 0
438 15 4 -0.65 -8.806657921330377 -7.106703298643514 5.570469155829285 1 0 0
1442 182 7 0.527 -3.782193441855398 -1.355148070972895 0.23077241453260733 1 1 1
451 15 1 -0.01 -5.456497141378861 -6.774304578823277 8.160723211305664 1 0 0
1652 252 7 0.527 -0.8414757300242268 -3.575038637963889 7.7373182130335625 -1 0 0
1171 92 7 0.527 -7.228390063774423 -1.5185449304407577 6.051738481711231 1 0 0
952 31 3 0.09 -4.417019713928315 -7.182536112139538 0.4131809200132448 1 1 0
122 4 3 0.09 -5.974257369312128 -1.842471856267501 3.524754127071846 1 1 0
1050 52 6 -1.054 -8.015648435895805 -12.518439390291016 0.556651049152471 1 1 1
1390 165 7 0.527 -8.870840496069114 -0.21891669902913868 7.051140351186612 0 0 0
1658 254 7 0.527 -7.4799177330729725 -1.298740646616956 10.187376724691534 1 1 0
1207 104 7 0.527 -10.167784415131687 -8.286726700499663 1.274792904712161 1 1 0
1581 229 6 -1.054 -3.6125301176260614 -4.073081581845326 3.200846321775076 0 0 0
118 4 3 0.09 -7.41489986035672 -0.12267881358323685 2.1756741128464885 1 1 0
739 24 3 0.09 -11.431762337383866 -12.703691690027197 4.100534123126456 1 1 0
715 24 3 0.09 -3.6563046007545026 -12.358942030193946 3.342876325511982 1 1 0
729 24 2 -0.34 -7.9528819057776 -10.502925006105741 5.582495636854437 1 1 0
1710 272 6 -1.054 -0.5770772652700682 -1.8743940806532642 10.519966974245348 1 0 -1
943 31 1 -0.01 -2.0807234869850593 -9.510509535449307 1.4294701454517078 1 1 0
1723 276 7 0.527 -2.1883265638477045 -12.022385825502761 10.463672625994752 1 1 0
1193 99 7 0.527 -3.492238293652017 -9.241999348137734 9.63153998382714 0 0 0
1232 112 7 0.527 -5.551741260104417 -12.80460195779684 7.162965355975752 0 1 -1
1797 301 6 -1.054 -3.919955511916834 -3.513473466141196 8.158482113592827 1 1 0
1805 303 7 0.527 -10.354479333912593 -5.737989516636683 11.88071263231839 1 1 -1
1170 92 6 -1.054 -7.0705378115162345 -2.4218288512535793 6.326291924970112 1 0 0
721 24 3 0.09 -3.8869905802086 -11.834766659721735 6.067386824164897 1 1 0
1107 71 6 -1.054 -7.703809284540988 -0.07226352930071478 5.347338771503994 0 0 0
1276 127 7 0.527 -11.235836769511074 -9.898733355948039 10.782862798466253 2 1 0
1222 109 7 0.527 -2.3328555689158996 -1.6198721344463074 3.4547383909339775 0 0 0
124 4 5 0.42 -5.986568181019379 -3.5884411467524213 3.1545940655991753 1 1 0
1474 193 7 0.527 -2.1128514381583496 -12.255093403736245 7.872335119068472 0 2 -1
445 15 3 0.09 -5.258209919586184 -5.771151171957203 4.142694644316643 1 0 0
1657 254 7 0.527 -6.489230750886524 -0.27703587427330945 10.70363389837956 1 1 0
450 15 2 -0.34 -5.631378353760941 -6.976440326461698 7.006064652831393 1 0 0
101 4 3 0.09 -12.19020355201923 -4.19069310163532 1.3899529600277916 1 1 0
1370 158 7 0.527 -8.21831174784607 -12.474010776277352 12.15454181195941 1 1 0
735 24 3 0.09 -10.981603946310754 -10.961114155663708 5.114127292692524 1 1 0
738 24 3 0.09 -10.634775161900592 -12.168307436087208 2.620608936841883 1 1 0
1223 109 7 0.527 -2.510823549697548 -0.5204487666365694 2.4293315718034147 0 0 0
1711 272 7 0.527 -0.630346168324138 -0.953111486716951 10.265762340335014 1 0 -1
1637 247 7 0.527 -5.664664395296284 -9.202124100968746 11.991678806890727 1 1 0
1799 301 7 0.527 -4.537130754448421 -3.8185173846313063 8.823510015907067 1 1 0
1724 276 7 0.527 -2.557787298484701 -12.428478819162171 11.874505870002809 1 1 0
1191 99 6 -1.054 -3.581172711713913 -9.573981090361954 8.738176652554893 0 0 0
1746 284 6 -1.054 -0.8612635639524129 -4.653033848987761 3.0065557702721417 1 0 0
728 24 3 0.09 -7.316451585067751 -8.918123432787457 6.424928524619203 1 1 0
453 15 3 0.09 -4.418750395996517 -6.929044470107326 8.45445780969487 1 0 0
100 4 3 0.09 -12.491790631911613 -5.620134066419361 0.29536390604770624 1 1 0
459 15 3 0.09 -8.180368472140614 -7.738207676851057 10.430496430597737 1 0 0
1275 127 6 -1.054 -10.384230921641151 -10.333532413097002 10.826867984294891 2 1 0
1923 343 6 -1.054 -3.5719153625780855 -7.924401897026552 11.129034173757676 1 1 1
1540 215 7 0.527 -10.355172384340758 -0.36563755393292574 12.141220704614435 0 1 0
681 22 4 -0.65 -12.621269343208718 -12.760048408715187 11.602844084533631 2 1 0
1119 75 6 -1.054 -12.539648824095444 -10.594987927063066 1.4628721190563514 2 1 0
1097 67 7 0.527 -12.902020828991642 -8.190806477795668 4.830136419363674 1 2 1
732 24 3 0.09 -9.52930569362297 -9.74809817404134 6.363927963628312 1 1 0
1782 296 6 -1.054 -6.944227088595496 -5.537754136969819 12.130284438246262 0 0 0
657 22 1 -0.01 -12.773017599801147 -9.74278060597619 8.353743867013476 2 1 0
951 31 3 0.09 -3.7502163233390107 -5.6049837429568 1.08829536677157 1 1 0
1475 193 7 0.527 -3.0656587830133297 -11.345295653440115 8.61818363168617 0 2 -1
1569 225 6 -1.054 -0.8928498285480462 -11.580983378943214 5.507964028654106 1 1 0
945 31 3 0.09 -0.9459786646236932 -9.510529913263026 1.3155784878029788 1 1 0
949 31 3 0.09 -1.8254261089966999 -7.005544565389047 1.9700252192149712 1 1 0
656 22 5 0.42 -11.284384197323064 -11.321183368985485 9.401261015341271 2 1 0
1804 303 7 0.527 -8.965009839177192 -5.922698469105023 12.452657545699703 1 1 -1
1784 296 7 0.527 -6.388626022410547 -5.295124813035264 11.389570209416073 0 0 0
1909 338 7 0.527 -4.017637665208747 -3.3615685966655846 6.29057139081589 1 1 0
123 4 4 -0.65 -6.622513468012361 -3.177655484513137 2.564415188119913 1 1 0
947 31 1 -0.01 -2.699150475365581 -7.554118759717766 1.5311330616120298 1 1 0
436 15 3 0.09 -9.550160229139895 -5.929785715485648 4.525104104387777 1 0 0
1651 252 7 0.527 -0.6424729560319964 -3.0294476895841047 9.135385354258664 -1 0 0
439 15 5 0.42 -7.8968942168805825 -6.887758980762183 5.885628400720284 1 0 0
121 4 3 0.09 -7.698184392476275 -2.015683772639253 3.6491037528791264 1 1 0
458 15 1 -0.01 -8.200173368311734 -8.047422318327264 9.351028171038804 1 0 0
736 24 2 -0.34 -9.672490215648544 -12.191499823761927 4.427572329906662 1 1 0
443 15 2 -0.34 -6.793216274547528 -6.248697757067602 4.844689578128117 1 0 0
1676 260 7 0.527 -10.88901067739879 -4.3151570782016275 10.209807561449304 1 1 0
1675 260 7 0.527 -11.205407433381612 -5.625126760912765 9.520071126496157 1 1 0
61 2 4 -0.65 -2.006158154892079 -8.786541103011743 4.931757334083239 0 1 0
96 4 3 0.09 -11.466968337954505 -6.6706860670003865 1.9921245361190287 1 1 0
1908 338 6 -1.054 -4.378736137336356 -2.8202330771061064 5.5885865268868375 1 1 0
1305 137 6 -1.054 -5.38964907354224 -0.9255660411728108 8.151829295223857 1 1 0
941 31 3 0.09 -1.6718266872135832 -11.48193286415236 1.0206927399407988 1 1 0
940 31 1 -0.01 -2.456800776930775 -10.822770010990844 0.74339229907579 1 1 0
950 31 1 -0.01 -3.526106812558865 -6.576017461315281 0.5617681249257647 1 1 0
668 22 1 -0.01 -12.545374074744783 -8.678071483475605 13.033923056173295 2 1 0
1403 169 7 0.527 -0.2258250367797192 -0.4085602781769211 5.592730391339279 1 0 1
948 31 3 0.09 -3.385212278810089 -7.813091545131193 2.382688001423107 1 1 0
660 22 2 -0.34 -12.62065658891859 -9.431917927762207 9.456639329810622 2 1 0
1206 104 6 -1.054 -10.12441038717451 -9.237572687740734 1.3759355614488022 1 1 0
435 15 1 0.05 -8.847110417777927 -6.82423243098225 4.439503762101582 1 0 0
1529 211 7 0.527 -10.792649206011035 -6.834369849231762 5.986117654721761 1 1 -1
946 31 2 -0.34 -2.4877331141029586 -8.522216568250602 0.9025344624996716 1 1 0
462 15 3 0.09 -9.900255689758938 -8.438635733294493 7.971010890799862 1 0 0
1748 284 7 0.527 -0.18070023591909745 -5.2627694454399405 3.291644011686108 1 0 0
942 31 3 0.09 -3.3314719956093324 -11.27963439327744 1.1981641405217296 1 1 0
108 4 3 0.09 -11.415750286239353 -2.200895195592018 0.878906115392029 1 1 0
1656 254 6 -1.054 -7.376088755187295 -0.6091141982068358 10.843009195230293 1 1 0
440 15 1 -0.01 -7.419941816793471 -6.745087942810214 4.019484453154343 1 0 0
731 24 3 0.09 -8.995039084060286 -11.539251064548928 6.6729037263009925 1 1 0
1070 58 7 0.527 -12.691810218710136 -2.2995602565160116 4.5749848675989515 1 0 0
1262 122 7 0.527 -11.762653071542472 -3.309918024825693 7.574955349651992 1 1 0
1576 227 7 0.527 -5.269302930552004 -12.623862916568225 1.6778371108945063 0 2 1
437 15 3 0.09 -9.393534728416672 -7.6750038825942966 3.988558696236863 1 0 0