LAMMPS (8 Feb 2023)
# LAMMPS input file
# PEG molecule in water
# author : Simon Gravelle

include PAIR.lammps
# define basic parameters
units real
atom_style full
bond_style harmonic
angle_style charmm
dihedral_style charmm
pair_style lj/cut/tip4p/long 6 7 6 9 0.1546 14.0
kspace_style pppm/tip4p 1.0e-5
special_bonds lj 0.0 0.0 0.5
read_data equil1.data
Reading data file ...
  orthogonal box = (-13.093119 -13.093119 -13.093119) to (13.093119 13.093119 13.093119)
  2 by 2 by 2 MPI processor grid
  reading atoms ...
  1952 atoms
  reading velocities ...
  1952 velocities
  scanning bonds ...
  4 = max bonds/atom
  scanning angles ...
  6 = max angles/atom
  scanning dihedrals ...
  6 = max dihedrals/atom
  reading bonds ...
  1600 bonds
  reading angles ...
  2016 angles
  reading dihedrals ...
  1088 dihedrals
Finding 1-2 1-3 1-4 neighbors ...
  special bond factors lj:    0        0        0.5     
  special bond factors coul:  0        0        0       
     4 = max # of 1-2 neighbors
     6 = max # of 1-3 neighbors
    12 = max # of 1-4 neighbors
    14 = max # of special neighbors
  special bonds CPU = 0.001 seconds
  read_data CPU = 0.052 seconds
include H2O.lammps
# Mass
mass 		6 15.9994 # H2O O
mass 		7 1.008 # H2O H

# Pair Coeff
pair_coeff 	6 6 0.185199 3.1589
pair_coeff 	7 7 0.0 0.0

# Bond coeff
bond_coeff 	6 0 0.9572

# Angle coeff
angle_coeff 9 0 104.52 0 0
include PEG.lammps
# Mass
mass 		1 12.011 # CC32A
mass 		2 15.9994 # OC30A
mass 		3 1.008 # HCA2
mass 		4 15.9994 # OC311
mass 		5 1.008 # HCP1

# Pair Coeff
pair_coeff 	1 1 0.056 3.58141
pair_coeff 	2 2 0.100 2.93997
pair_coeff 	3 3 0.035 2.38761
pair_coeff 	4 4 0.192 3.14487
pair_coeff 	5 5 0.046 0.40001

# Bond coeff
bond_coeff 	1 222.35 1.5300
bond_coeff 	2 308.79 1.1111
bond_coeff 	3 359.76 1.1415
bond_coeff 	4 427.715 1.1420
bond_coeff 	5 544.635 0.9600

# Angle coeff
angle_coeff	1 50.0000 109.0000 0.0000 0.0000
angle_coeff	2 26.5000 110.1000 22.5300 2.179
angle_coeff	3 45.0000 111.5000 0.0000 0.0000
angle_coeff	4 13.0258 109.4000 0.0000 0.0000
angle_coeff	5 35.5000 109.0000 5.4000 1.802
angle_coeff	6 55.0000 108.8900 0.0000 0.0000
angle_coeff	7 75.7000 110.1000 0.0000 0.0000
angle_coeff	8 95.0000 109.7000 0.0000 0.0000

# Dihedral coeff
# weighting factor put to 0, possibly wrong
dihedral_coeff	1 0.57 1 0 0
dihedral_coeff	2 0.29 2 0 0
dihedral_coeff	3 0.43 3 0 0
dihedral_coeff	4 0.59 1 180 0
dihedral_coeff	5 1.16 2 0 0
dihedral_coeff	6 0.12 1 0 0
dihedral_coeff	7 0.42 2 0 0
dihedral_coeff	8 0.29 3 0 0
dihedral_coeff	9 2.87 1 180 0
dihedral_coeff	10 0.03 2 0 0
dihedral_coeff	11 0.23 3 0 0
dihedral_coeff	12 1.36 1 180 0
dihedral_coeff	13 0.16 2 0 0
dihedral_coeff	14 1.01 3 0 0

include GROUP.lammps
# define groups
group PEG type 1 2 3 4 5
992 atoms in group PEG
group H2O type 6 7
960 atoms in group H2O
group HYD type 3 5 7
1216 atoms in group HYD

# dynamics
timestep 1
fix myshk H2O shake 1.0e-5 200 0 b 6 a 9
Finding SHAKE clusters ...
       0 = # of size 2 clusters
       0 = # of size 3 clusters
       0 = # of size 4 clusters
     320 = # of frozen angles
  find clusters CPU = 0.000 seconds
fix mynpt all npt temp 300 300 100 iso 1 1 1000

# output - print positions every 2 picosecond
dump mydmp all xtc 1000 prod.xtc
thermo 1000

# run
run 10000000 # 10 ns
PPPM initialization ...
  extracting TIP4P info from pair style
  using 12-bit tables for long-range coulomb (../kspace.cpp:342)
  G vector (1/distance) = 0.2135537
  grid = 15 15 15
  stencil order = 5
  estimated absolute RMS force accuracy = 0.0032647474
  estimated relative force accuracy = 9.8316897e-06
  using double precision KISS FFT
  3d grid and FFT values/proc = 2744 512
WARNING: Communication cutoff 0 is shorter than a bond length based estimate of 5.4425. This may lead to errors. (../comm.cpp:723)
WARNING: Increasing communication cutoff to 17.1118 for TIP4P pair style (../pair_lj_cut_tip4p_long.cpp:484)
Generated 21 of 21 mixed pair_coeff terms from geometric mixing rule
Neighbor list info ...
  update: every = 1 steps, delay = 0 steps, check = yes
  max neighbors/atom: 2000, page size: 100000
  master list distance cutoff = 16.3092
  ghost atom cutoff = 17.1118
  binsize = 8.1546, bins = 4 4 4
  1 neighbor lists, perpetual/occasional/extra = 1 0 0
  (1) pair lj/cut/tip4p/long, perpetual
      attributes: half, newton on
      pair build: half/bin/newton
      stencil: half/bin/3d
      bin: standard
Per MPI rank memory allocation (min/avg/max) = 13.79 | 13.8 | 13.81 Mbytes
   Step          Temp          E_pair         E_mol          TotEng         Press          Volume    
         0   291.7092      -4298.0893      1385.181      -1494.7054     -316.76257      17956.404    
      1000   304.07251     -4343.3475      1410.6537     -1454.3841     -3014.4517      18105.656    
      2000   299.37564     -4277.8742      1386.2468     -1436.1525     -406.3371       18292.807    
      3000   301.61123     -4241.6175      1342.0529     -1433.221       619.97076      18246.205    
      4000   303.85278     -4226.7127      1369.281      -1380.1903     -103.03236      18253.495    
      5000   310.38564     -4233.3793      1376.4877     -1347.8893      143.81499      18156.683    
      6000   292.70201     -4293.1096      1412.7748     -1457.3051     -608.73102      18120.487    
      7000   305.24523     -4277.1651      1398.7835     -1394.3705     -594.37021      18012.988    
      8000   306.64822     -4217.3157      1391.2431     -1335.2406      1820.6349      18308.559    
      9000   300.78686     -4334.2296      1402.156      -1469.7378     -770.38285      18099.085    
     10000   302.89261     -4294.8912      1369.3864     -1452.9314      980.62436      17803.356    
     11000   297.59486     -4261.8775      1382.3118     -1432.7485      876.30776      18027.999    
     12000   293.2895      -4275.9047      1383.0271     -1466.9917      227.79858      18074.943    
     13000   300.52879     -4280.4212      1342.0352     -1477.3049     -88.791083      18224.214    
     14000   292.61896     -4291.4824      1372.6184     -1496.2381      850.27057      18041.14     
     15000   293.45134     -4252.3319      1384.5617     -1441.0975     -145.18567      18015.353    
     16000   297.89528     -4259.5403      1403.6493     -1407.6132      232.45257      18165.39     
     17000   300.84831     -4253.7597      1407.8654     -1383.2597     -1874.7591      17953.853    
     18000   303.64283     -4230.5735      1396.0938     -1358.259       664.86393      18076.823    
     19000   290.82694     -4229.2558      1350.1024     -1465.2397     -1283.9026      18430.295    
     20000   310.54619     -4281.1742      1387.1561     -1384.2353      1635.0428      18139.035    
     21000   295.04871     -4324.7231      1402.9126     -1487.3719     -147.17846      18228.994    
     22000   303.14014     -4274.3765      1383.2356     -1417.3641     -40.039979      18034.6      
     23000   296.44945     -4262.5105      1407.1413     -1414.1205     -1698.3584      18272.104    
     24000   292.9887      -4276.919       1393.3969     -1459.0985      727.72863      17849.586    
     25000   297.96397     -4299.4826      1398.8253     -1452.0455     -1562.4763      17996.678    
     26000   294.30166     -4318.9904      1437.0807     -1451.103      -1650.4022      18132.078    
     27000   296.93096     -4275.2736      1424.2119     -1407.4721      667.19969      17985.513    
     28000   304.04079     -4263.6809      1361.5247     -1424.0007      1387.3842      18221.377    
     29000   309.31728     -4284.2553      1375.3643     -1405.0828     -1273.4505      18559.446    
     30000   293.50957     -4258.0668      1379.7866     -1451.3244      2618.4316      18183.923    
     31000   289.56266     -4299.1195      1426.8218     -1464.5306     -2381.9989      18101.629    
     32000   305.46304     -4238.2878      1408.6799     -1344.5379     -327.53014      18269.339    
     33000   293.90447     -4153.1135      1375.9385     -1348.2993      1360.6095      18513.06     
     34000   303.97309     -4172.7689      1340.6362     -1354.3064      1873.4954      18425.622    
     35000   291.64032     -4158.2848      1338.3335     -1402.0832      1885.9597      18453.578    
     36000   304.56131     -4285.2182      1402.1665     -1402.3656      521.44654      18134.18     
     37000   299.51853     -4282.424       1361.5107     -1464.7437      938.69249      18218.023    
     38000   287.46124     -4318.1807      1413.2409     -1507.3892     -1210.3319      18442.24     
     39000   292.05        -4308.3781      1394.2203     -1494.298      -653.71691      18057.001    
     40000   302.25146     -4251.4824      1358.2158     -1423.8103      2004.4426      17989.976    
     41000   306.75925     -4242.7255      1394.6102     -1356.7434      762.22214      17879.293    
     42000   297.01003     -4299.6832      1452.7551     -1402.9541      166.40432      18148.379    
     43000   311.98688     -4243.3174      1440.9366     -1285.5939      584.17821      17966.217    
     44000   295.03809     -4225.7965      1380.8672     -1410.5423     -526.58601      18104.321    
     45000   294.15816     -4241.3103      1331.2417     -1479.9595     -1215.5991      18129.171    
     46000   300.32866     -4277.3636      1409.073      -1408.1825      609.33761      18348.857    
     47000   295.14374     -4244.8882      1356.9131     -1453.0744      282.69304      18406.956    
     48000   294.12026     -4233.0018      1408.1482     -1394.9288     -998.71206      18060.797    
     49000   297.62589     -4264.2446      1409.1007     -1408.1758     -642.95802      18234.681    
     50000   292.9356      -4255.0595      1410.9458     -1419.9483      2039.0925      17907.635    
     51000   288.11834     -4295.0225      1402.7144     -1491.5628     -328.08913      18028.147    
     52000   295.54492     -4307.8246      1359.1506     -1511.8229     -115.73123      18041.831    
     53000   301.24433     -4247.3733      1347.8353     -1434.9781     -865.84951      18140.101    
     54000   310.87198     -4181.9069      1362.472      -1308.0682      1099.5969      18292.311    
     55000   298.22098     -4187.9411      1355.656      -1382.4238      41.062712      17900.081    
     56000   305.81289     -4214.1169      1377.173      -1350.173       1783.4533      17837.235    
     57000   306.33841     -4248.2699      1339.8216     -1419.1224     -230.54164      17885.066    
     58000   298.23202     -4185.7292      1378.4862     -1357.3281      1272.6372      18077.987    
     59000   291.77755     -4193.6135      1369.3453     -1405.733       1000.5066      18303.798    
     60000   305.98084     -4207.2254      1387.1801     -1332.4579     -778.34023      18331.169    
     61000   290.57422     -4199.2005      1385.6276     -1400.8879      7.178874       18006.03     
     62000   299.7276      -4219.7416      1362.2179     -1400.3378      972.39621      18098.845    
     63000   291.93107     -4265.2411      1361.7195     -1484.2399     -1162.5714      18037.006    
     64000   300.39267     -4226.3386      1358.499      -1407.4202      1422.4886      18243.297    
     65000   302.21048     -4243.8232      1409.7981     -1364.768       1743.1069      17989.798    
     66000   295.10867     -4229.6311      1354.3324     -1440.5685      549.94404      17979.659    
     67000   310.01854     -4231.0777      1361.7941     -1362.0661      68.370752      18027.57     
     68000   296.30468     -4227.9573      1421.312      -1366.1004      696.94315      18259.4      
     69000   303.94569     -4207.8934      1360.163      -1370.0374     -138.16278      18505.984    
     70000   305.18808     -4215.7353      1370.9573     -1361.0448      156.75706      18098.014    
     71000   289.95739     -4261.417       1402.2218     -1449.509       326.48046      18033.125    
     72000   300.7923      -4260.6749      1401.2173     -1397.0954     -1622.5957      18233.063    
     73000   300.6575      -4220.9194      1390.7658     -1368.4466      838.54565      18224.12     
     74000   298.07356     -4292.3283      1388.4462     -1454.7375     -238.81197      18121.716    
     75000   302.26575     -4176.3636      1378.8335     -1328.0043      1840.1414      18227.17     
     76000   298.83137     -4252.3347      1369.9922     -1429.5137     -106.51696      18275.781    
     77000   284.97694     -4183.4067      1375.9692     -1421.9648      1133.3489      18341.246    
     78000   292.72738     -4269.7911      1415.8426     -1430.7954      667.13736      17948.779    
     79000   295.49812     -4282.6873      1414.4062     -1431.6575      422.36497      18411.683    
     80000   297.6405      -4200.8858      1421.2139     -1332.6328      348.23415      18260.26     
     81000   295.93728     -4238.1926      1373.8758     -1425.5582     -1356.0509      18384.152    
     82000   302.03203     -4200.6265      1399.9675     -1332.2696     -1296.8901      18525.143    
     83000   296.77955     -4184.4393      1405.0278     -1336.558       1056.4275      18436.297    
     84000   289.32234     -4200.6673      1383.4887     -1410.5798      204.97323      18307.468    
     85000   296.61439     -4209.5988      1353.91       -1413.6382      865.15921      18484.455    
     86000   299.65036     -4215.8854      1425.3307     -1333.7442      1673.4438      18096.591    
     87000   288.19306     -4195.1818      1396.8922     -1397.181       165.73736      18378.272    
     88000   308.01273     -4230.8095      1442.9932     -1290.3504      336.51682      18210.03     
     89000   298.38359     -4219.9229      1381.6513     -1387.6198      862.54485      18014.201    
     90000   291.18878     -4259.0997      1400.4938     -1442.933       462.76366      18036.27     
     91000   297.11489     -4254.7964      1393.32       -1416.9926     -893.62329      18005.37     
     92000   300.27619     -4286.1219      1380.2672     -1446.0016      1320.1132      18040.112    
     93000   314.58901     -4220.1884      1427.5287     -1263.2219      825.58993      18425.935    
     94000   302.56905     -4280.9548      1393.4548     -1416.4997     -1645.7069      18147.654    
     95000   305.29067     -4281.6619      1429.6299     -1367.8        -1173.8902      18336.2      
     96000   309.75185     -4280.0084      1417.5873     -1356.5001     -439.68447      18244.147    
     97000   298.06354     -4263.3179      1363.9974     -1450.2246      2085.0347      18131.314    
     98000   301.62862     -4246.6428      1386.9403     -1393.2743      688.35743      18183.635    
     99000   291.86583     -4271.708       1361.5332     -1491.2103      1530.1996      18164.645    
    100000   290.41168     -4225.638       1432.8522     -1380.891       174.9176       18202.024    
    101000   302.05504     -4242.4588      1364.6343     -1409.3232      1844.3559      18125.703    
    102000   300.68696     -4221.2944      1358.4207     -1401.0236      427.59661      18134.965    
    103000   296.81362     -4299.7427      1375.4332     -1481.2903      525.44426      18028.571    
    104000   299.22418     -4298.5348      1394.2578     -1449.5385      230.95575      17843.176    
    105000   299.14746     -4276.6394      1375.4873     -1446.7865      1398.564       17980.579    
    106000   298.88864     -4262.2392      1404.345      -1404.7869     -79.7648        18060.889    
    107000   295.46257     -4269.7593      1385.2024     -1448.1062     -506.05606      18138.114    
    108000   300.58462     -4238.2017      1381.3205     -1395.5286     -793.74325      18360.734    
    109000   314.94219     -4276.6067      1372.5344     -1372.9175     -1785.038       18435.101    
    110000   302.41813     -4226.3663      1372.0894     -1384.0103      229.10257      18134.216    
    111000   309.94076     -4277.6545      1376.0041     -1394.8111     -1494.6409      18343.955    
    112000   312.64206     -4221.6993      1390.742      -1310.985      -972.85021      18173.809    
    113000   294.7579      -4208.4929      1325.3905     -1450.0776      422.99005      18213.256    
    114000   301.15989     -4185.6812      1352.614      -1368.9179     -912.23471      18496.765    
    115000   296.94037     -4187.0239      1357.4491     -1385.9395     -325.32558      18330.295    
    116000   290.66986     -4186.6432      1359.785      -1413.7083      1023.7326      18173.741    
    117000   292.59253     -4244.1244      1364.301      -1457.326      -1243.0135      18351.531    
    118000   307.98599     -4206.5246      1344.7051     -1364.4837      213.09236      18058.881    
    119000   295.80199     -4262.2069      1377.9528     -1446.1532     -1794.8259      18258.483    
    120000   298.00949     -4298.5948      1405.7328     -1444.029       834.38879      17941.68     
    121000   298.84619     -4315.3443      1447.0189     -1415.4245     -738.11858      18273.315    
    122000   297.09494     -4301.4506      1405.6226     -1451.4412     -352.13883      17864.261    
    123000   301.55185     -4309.2915      1395.2164     -1448.0201      95.740388      18012.92     
    124000   297.61453     -4279.9152      1408.7559     -1424.2464      794.48542      18162.695    
    125000   300.7751      -4230.7965      1426.5799     -1341.938      -957.11491      18203.76     
    126000   305.7263      -4244.7063      1407.7529     -1350.6035      622.43901      18243.387    
    127000   302.66929     -4265.6232      1363.9772     -1430.1584     -1722.714       18060.551    
    128000   317.76106     -4225.4241      1374.402      -1306.1627      435.54064      17826.707    
    129000   297.96891     -4257.6917      1362.1032     -1446.9528     -816.25381      18000.993    
    130000   286.43092     -4241.7634      1374.6449     -1474.5769     -516.13712      18026.984    
    131000   299.86428     -4239.6025      1392.5763     -1389.1757     -1118.4727      18636.074    
    132000   298.16443     -4226.5652      1340.6505     -1436.3283      1292.9651      18099.708    
    133000   300.2736      -4288.9641      1389.1243     -1439.9993     -170.56147      17876.517    
    134000   294.33275     -4256.3482      1414.0039     -1411.3864      18.467617      18064.024    
    135000   305.94411     -4236.2739      1413.8202     -1335.0449     -180.77502      18185.56     
    136000   306.34704     -4261.3847      1389.8656     -1382.1513     -129.06871      18377.121    
    137000   306.85956     -4232.3666      1368.2509     -1372.2562     -1339.8438      17995.564    
    138000   312.9229      -4175.2152      1329.2582     -1324.6193     -223.06889      18172.13     
    139000   294.75334     -4273.3535      1375.4427     -1464.9082      732.72964      18002.056    
    140000   306.54073     -4224.4407      1345.4445     -1388.6868     -996.21541      18347.544    
    141000   295.21431     -4256.4609      1368.1444     -1453.0728     -413.07507      17880.707    
    142000   289.16505     -4271.1853      1393.1748     -1472.1764      1815.5779      18004.965    
    143000   312.3675      -4242.935       1394.6238     -1329.6737     -69.487048      18055.595    
    144000   295.81459     -4219.8842      1374.4415     -1407.2806      291.47172      18255.102    
    145000   303.87882     -4164.4732      1357.7449     -1329.3603     -882.68853      18549.456    
    146000   299.81748     -4258.0204      1402.753      -1397.6444      1970.7052      18027.555    
    147000   288.78553     -4263.0008      1350.9249     -1508.0869      373.50519      18160.092    
    148000   304.89382     -4281.9189      1396.0778     -1403.5384     -435.91856      18185.371    
    149000   296.25819     -4316.3726      1391.3818     -1484.672      -977.8273       18395.272    
    150000   292.08434     -4267.8612      1429.3923     -1418.4421     -1241.9016      17833.534    
    151000   309.05898     -4281.5206      1375.329      -1403.6392     -218.41897      18129.721    
    152000   295.88462     -4226.7188      1392.3363     -1395.8799     -322.56146      18101.656    
    153000   287.66724     -4246.9721      1386.2265     -1462.1934     -132.77738      18487.865    
    154000   309.0618      -4246.8325      1427.2413     -1317.025       558.1079       18118.229    
    155000   295.40825     -4274.6545      1392.878      -1445.5899     -1467.3875      18250.108    
    156000   295.74559     -4230.2759      1386.9237     -1405.5256      472.86256      18162.471    
    157000   294.98448     -4309.5082      1414.8844     -1460.4974     -155.74199      18105.358    
    158000   293.63829     -4235.3179      1438.163      -1369.5733      216.81736      18301.964    
    159000   305.07288     -4248.8673      1395.9324     -1369.7618      1231.5398      18263.01     
    160000   297.54562     -4339.4365      1397.8545     -1495.0041     -1432.5579      18066.804    
    161000   295.11204     -4229.6903      1388.3764     -1406.5674     -960.15525      18190.349    
    162000   284.30629     -4296.4938      1358.3409     -1555.9407     -194.52655      17918.269    
    163000   304.74044     -4243.2482      1380.1213     -1381.5699      218.08924      18121.849    
    164000   291.08114     -4258.6609      1355.5879     -1487.9234      1471.9302      18156.542    
    165000   305.91019     -4330.1249      1402.719      -1440.1619     -591.36956      17798.48     
    166000   293.00461     -4236.328       1448.0702     -1363.7569     -1545.6407      18104.236    
    167000   306.30964     -4242.2241      1312.5233     -1440.5148      1529.7622      17830.613    
    168000   301.9914      -4293.8721      1403.602      -1422.0782      258.36942      18051.981    
    169000   301.95117     -4246.4007      1401.7598     -1376.6446      741.95167      18067.019    
    170000   297.17896     -4261.6531      1377.7227     -1439.1351      199.48532      17944.34     
    171000   303.55306     -4265.8403      1356.2146     -1433.8415      1615.4256      18238.278    
    172000   296.55394     -4248.4048      1408.7784     -1397.8698     -939.39185      18223.995    
    173000   294.08841     -4223.8124      1330.675      -1463.3675     -291.35285      18304.901    
    174000   309.96045     -4260.2202      1375.7874     -1377.4977     -777.78199      18054.822    
    175000   297.89224     -4305.376       1400.6137     -1456.4992     -75.380182      18048.716    
    176000   306.30539     -4304.4924      1389.1538     -1426.1733      648.66748      18170.984    
    177000   296.21849     -4305.2485      1381.1576     -1483.9651      27.033153      18300.064    
    178000   299.97591     -4290.6889      1410.197      -1422.0986      2852.1493      18127.733    
    179000   295.90728     -4278.7037      1334.8925     -1505.1984     -172.57024      17957.826    
    180000   297.24732     -4324.376       1394.3411     -1484.9073      303.87829      17997.129    
    181000   300.56124     -4263.7608      1395.5034     -1407.0184      1026.3405      18357.989    
    182000   301.81636     -4307.8285      1394.1871     -1446.3005      202.33262      18136.885    
    183000   318.08324     -4249.6458      1330.531      -1372.689       1229.5275      18243.137    
    184000   287.03558     -4270.8285      1374.7878     -1500.5594      865.15666      18162.589    
    185000   296.4543      -4270.0258      1372.2552     -1456.4983      42.765918      17826.223    
    186000   304.05999     -4280.6359      1402.6184     -1399.7688     -499.37374      18223.828    
    187000   306.3394      -4260.1292      1360.5124     -1410.2862     -110.03598      18057.229    
    188000   310.51624     -4248.6683      1371.0521     -1367.9791      552.46692      18237.372    
    189000   298.06139     -4238.2355      1411.6214     -1377.5287      179.85507      18034.957    
    190000   304.43519     -4270.159       1347.6743     -1442.4118      915.79759      17985.095    
    191000   295.36578     -4234.16        1406.2633     -1391.9166     -1237.8189      18588.269    
    192000   290.79811     -4274.1414      1406.7891     -1453.5788     -797.79358      18311.77     
    193000   295.75582     -4257.3981      1394.6839     -1424.8378     -1483.137       18201.292    
    194000   304.3434      -4317.8676      1412.8305     -1425.4105     -1316.7509      18022.183    
    195000   294.76463     -4182.3897      1374.6256     -1374.7066      44.399759      18218.771    
    196000   312.29394     -4178.5508      1338.7869     -1321.4841      2467.966       18141.056    
    197000   298.2898      -4213.983       1388.4857     -1375.3014     -834.93806      18267.811    
    198000   297.71596     -4170.9709      1377.4247     -1346.1401      499.81501      18117.627    
    199000   296.53224     -4184.1567      1410.056      -1332.4495     -1546.746       18613.668    
    200000   303.30952     -4284.9215      1383.2883     -1427.033       270.22261      18298.646    
    201000   307.7123      -4233.1154      1352.674      -1384.4362      489.41848      17907.034    
    202000   288.62668     -4247.8501      1353.9519     -1490.6816      400.65438      18007.765    
    203000   303.90573     -4261.8251      1378.4139     -1405.9124      573.68625      18172.196    
    204000   299.92817     -4242.107       1383.289      -1400.6569     -1750.7603      18370.354    
    205000   296.33601     -4216.4928      1366.0397     -1409.7559     -493.19478      18170.593    
    206000   296.13208     -4236.2594      1368.7139     -1427.8397     -462.4194       18181.378    
    207000   299.43558     -4206.9437      1341.5031     -1409.6742     -926.11731      18109.074    
    208000   286.33571     -4282.7835      1383.8919     -1506.8129      1203.6136      18137.177    
    209000   311.95561     -4218.0437      1410.2283     -1291.1805     -3024.083       18259.504    
    210000   292.83239     -4212.9451      1379.4623     -1409.8192     -174.93375      18310.481    
    211000   306.88082     -4321.6898      1388.0892     -1441.6378      335.20932      17837.591    
    212000   304.78698     -4270.4165      1366.395      -1422.2382     -380.47866      18201.95     
    213000   302.04185     -4257.2027      1377.1762     -1411.5893     -908.53284      17881.989    
    214000   290.29156     -4291.5749      1390.3009     -1489.9632     -528.76382      17961.287    
    215000   290.15083     -4200.4105      1352.5958     -1437.1881     -408.86134      18506.524    
    216000   306.83645     -4267.0709      1383.528      -1391.7958     -342.97113      17817.845    
    217000   293.89329     -4275.5162      1383.3521     -1463.3427     -88.355276      18012.151    
    218000   303.49387     -4224.8121      1370.7837     -1378.5319     -1097.1422      18047.12     
    219000   290.67682     -4244.9807      1364.1586     -1467.6383     -63.205787      18409.015    
    220000   304.45881     -4284.3255      1364.8846     -1439.2531      1370.3873      18019.75     
    221000   300.46728     -4214.2853      1351.5862     -1401.917       400.60601      18282.993    
    222000   298.58776     -4263.4205      1370.9962     -1440.7798      691.11601      17974.909    
    223000   302.34855     -4242.7347      1374.9024     -1397.904       103.72862      18219.307    
    224000   311.07809     -4279.9026      1426.094      -1341.4398     -1649.9496      18243.686    
    225000   301.41104     -4313.9993      1380.0422     -1468.5867     -774.47504      17927.499    
    226000   308.71475     -4302.6212      1344.7603     -1456.982       234.46378      18066.724    
    227000   301.83041     -4233.9347      1349.0494     -1417.476      -1505.9529      18304.49     
    228000   302.08687     -4280.4545      1398.8212     -1412.9772      421.99947      18067.667    
    229000   297.32567     -4247.0689      1410.6521     -1390.9083      303.75156      18014.284    
    230000   303.62813     -4283.8299      1389.7269     -1417.9538      1381.056       17997.441    
    231000   301.97141     -4249.0752      1371.2609     -1409.7196      1220.6616      18163.255    
    232000   295.75303     -4229.6953      1450.9163     -1340.9162     -2521.9168      18726.685    
    233000   303.44708     -4269.3288      1397.6379     -1396.4219      823.51691      18146.552    
    234000   305.63807     -4296.4466      1374.9796     -1435.546       932.56918      17931.93     
    235000   295.36856     -4295.641       1408.491      -1451.1564      970.49509      18131.604    
    236000   309.72724     -4184.6559      1380.175      -1298.6796      1840.4431      18213.14     
    237000   293.80547     -4232.0369      1378.3827     -1425.2597      442.82932      17984.412    
    238000   295.95177     -4235.0124      1379.8814     -1416.302      -562.22971      18213.82     
    239000   310.68092     -4264.4357      1373.2434     -1380.7545     -1595.1867      18068.583    
    240000   299.73934     -4204.2177      1400.6099     -1346.3646      833.72626      18277.319    
    241000   290.3334      -4236.7927      1336.7835     -1488.495      -488.95683      18246.903    
    242000   298.42311     -4255.3143      1418.6689     -1385.8014     -752.27926      18088.258    
    243000   297.57765     -4242.2365      1337.8027     -1457.7002     -44.284422      18041.751    
    244000   293.12813     -4287.0966      1419.2302     -1442.765      -50.386608      18004.83     
    245000   295.1014      -4222.6671      1409.0989     -1378.8734     -32.076198      18242.727    
    246000   301.21267     -4291.2511      1407.7331     -1419.112       1160.1791      18061.002    
    247000   294.26338     -4261.8717      1377.6123     -1453.6387     -334.76979      18308.144    
    248000   295.33877     -4226.3344      1408.5981     -1381.8874     -148.7312       18178.265    
    249000   304.63597     -4226.4277      1458.3705     -1287.0081      1428.3699      18303.595    
    250000   292.98357     -4247.0118      1365.7939     -1456.8193     -2318.3076      18343.274    
    251000   297.39245     -4288.0275      1440.9393     -1401.255       309.18541      17987.033    
    252000   292.6295      -4299.5443      1391.9205     -1484.9467     -519.35851      18244.189    
    253000   304.54011     -4321.139       1369.5226     -1471.0335     -1078.5498      18044.134    
    254000   304.24987     -4250.2479      1402.2193     -1368.8566      1388.4007      18421.534    
    255000   302.53474     -4279.7744      1385.2241     -1423.7168      3574.084       17924.322    
    256000   296.32688     -4265.6439      1366.0926     -1458.8985      3.3106948      18205.27     
    257000   304.31735     -4283.3366      1383.1376     -1420.699       641.75356      18136.712    
    258000   302.0102      -4206.9598      1374.2306     -1364.4458     -151.41909      18076.79     
    259000   291.07482     -4252.6186      1380.9909     -1456.509      -653.44202      18296.842    
    260000   295.36336     -4204.344       1423.1682     -1345.2074     -2252.6498      18265.404    
    261000   307.0173      -4290.0803      1395.3504     -1402.1036     -565.81243      18242.674    
    262000   310.07233     -4213.6561      1387.5143     -1318.6628      482.91966      18243.863    
    263000   298.79039     -4249.5032      1395.086      -1401.7876     -941.90564      18123.717    
    264000   295.08428     -4333.9773      1374.511      -1524.8547     -957.50675      18140.55     
    265000   301.41075     -4278.888       1401.4316     -1412.0874     -111.00077      18140.215    
    266000   306.21248     -4233.2075      1409.3642     -1335.1297     -184.91986      18318.1      
    267000   292.64765     -4276.1889      1423.792      -1429.6315     -1850.1192      17960.017    
    268000   304.80495     -4259.0019      1368.9342     -1408.1972      553.1244       17719.578    
    269000   294.61573     -4213.4087      1331.7701     -1449.3049      874.79835      18077.165    
    270000   304.07629     -4207.0673      1330.1512     -1398.588       2325.5388      18001.266    
    271000   299.22346     -4294.5218      1393.3749     -1446.4118      325.3453       17925.834    
    272000   300.29036     -4246.2433      1343.9114     -1442.4099     -777.32764      17939.279    
    273000   304.31704     -4266.6579      1365.6837     -1421.4756      674.20906      18008.111    
    274000   303.39569     -4261.0238      1397.1919     -1388.8127     -1037.1566      18247.141    
    275000   301.24346     -4317.95        1366.8807     -1486.5136      264.51413      18046.432    
    276000   303.94637     -4261.5976      1323.7524     -1460.1488      1171.7184      18199.365    
    277000   297.27365     -4291.5788      1369.9527     -1476.3704      403.55035      18183.928    
    278000   296.41165     -4319.3876      1376.422      -1501.9007      1141.3977      17951.113    
    279000   292.99994     -4328.7983      1403.1441     -1501.1761      179.11487      18162.847    
    280000   299.69645     -4305.1684      1398.7811     -1449.3526      865.18493      18087.254    
    281000   296.99988     -4322.1403      1424.8171     -1453.3985     -491.92416      17930.072    
    282000   300.15174     -4236.1846      1412.3123     -1364.6242      831.27743      18119.59     
    283000   306.35078     -4193.5507      1411.7325     -1292.4323     -2606.54        18424.495    
    284000   295.599       -4265.7998      1377.0886     -1451.5972     -289.55379      17909.324    
    285000   304.5968      -4260.5442      1367.5235     -1412.1621      805.01038      18170.16     
    286000   299.03213     -4248.5498      1374.1123     -1420.6327     -841.88849      18035.752    
    287000   289.62107     -4274.0565      1414.8738     -1451.1317     -403.52666      18267.892    
    288000   299.76552     -4198.7497      1342.0395     -1399.3398      509.45404      18309.262    
    289000   302.35073     -4283.5354      1440.2205     -1373.3761     -2051.5564      18203.727    
    290000   300.80135     -4345.0579      1378.0157     -1504.6359      1828.3217      18015.45     
    291000   299.82331     -4313.0739      1440.1688     -1415.2537      708.46332      18034.049    
    292000   299.76194     -4259.025       1334.5157     -1467.1563      1545.9833      17990.227    
    293000   298.81725     -4274.6802      1415.1581     -1406.7618      55.998226      18138.482    
    294000   302.84477     -4207.0049      1379.7623     -1354.9019     -757.76872      18569.561    
    295000   304.79974     -4238.1683      1444.1477     -1312.1754     -54.969131      18354.288    
    296000   294.55486     -4241.2771      1393.4749     -1415.7644      78.336602      18262.259    
    297000   298.86525     -4273.7927      1358.9907     -1461.8085      56.346253      18160.012    
    298000   299.06838     -4255.023       1389.4823     -1411.5596      74.37597       18227.328    
    299000   298.72169     -4207.9642      1361.5133     -1394.1553      263.73037      18410.038    
    300000   299.3929      -4206.0956      1383.3332     -1367.2036     -953.4641       18427.527    
    301000   294.68448     -4222.3174      1395.8495     -1393.8        -1313.2575      18190.161    
    302000   314.88857     -4281.4248      1407.5367     -1342.9939      180.33812      18090.095    
    303000   291.5268      -4223.9609      1413.9139     -1392.7308      397.97021      18206.395    
    304000   299.44903     -4230.402       1437.2667     -1337.3036     -2450.3188      17997.541    
    305000   307.22883     -4242.2958      1372.1886     -1376.4524      100.11017      18606.637    
    306000   290.44482     -4257.0102      1376.1962     -1468.7581     -710.74023      18110.802    
    307000   297.01531     -4321.1566      1377.3585     -1499.7985      885.0378       17980.198    
    308000   301.80691     -4235.2059      1363.3218     -1404.5891      716.4897       18243.583    
    309000   292.21217     -4268.4993      1378.698      -1469.153       721.18648      18082.238    
    310000   304.74636     -4224.5771      1377.1337     -1365.8576     -771.34695      18068.921    
    311000   305.16246     -4240.3691      1401.9225     -1354.8379     -253.55006      18085.247    
    312000   303.25308     -4312.3293      1367.4179     -1470.5856     -686.7933       17895.181    
    313000   300.80602     -4276.5062      1387.1005     -1426.9767      447.03791      18039.467    
    314000   308.04635     -4268.4742      1388.6351     -1382.2098     -483.97776      18114.771    
    315000   291.89631     -4287.2637      1369.1616     -1498.9894      2516.7104      17973.004    
    316000   304.06978     -4245.7219      1355.1286     -1412.2968      1162.0818      17912.399    
    317000   307.76853     -4255.7871      1400.9345     -1358.574       1309.8261      18029.744    
    318000   302.95924     -4275.317       1395.9433     -1406.4764     -36.567339      18083        
    319000   308.35836     -4260.349       1436.9255     -1324.2773     -1553.3427      18431.013    
    320000   299.3654      -4202.764       1351.8457     -1395.4932      1363.8278      18224.648    
    321000   295.11852     -4259.2161      1425.706      -1398.732      -2742.8418      18061.82     
    322000   308.99664     -4245.2593      1374.6298     -1368.3803     -1381.8647      18091.059    
    323000   300.04924     -4282.7242      1366.8942     -1457.0803     -190.08182      18111.061    
    324000   306.95343     -4304.3519      1401.3522     -1410.6838      141.50338      18027.661    
    325000   292.57351     -4273.3492      1393.4043     -1457.5399      444.00778      18090.018    
    326000   296.05641     -4204.4858      1408.0467     -1357.1014      3244.8637      18103.745    
    327000   302.11366     -4213.0386      1376.6558     -1367.5964      378.45039      18231.092    
    328000   306.14467     -4246.495       1348.6202     -1409.4909      1074.3708      18173.103    
    329000   298.985       -4221.2154      1370.6438     -1396.9958      644.2422       18172.194    
    330000   299.29936     -4246.4291      1364.4534     -1426.8716      79.169857      18055.936    
    331000   302.18664     -4225.3321      1366.5725     -1389.6185      118.3582       18126.656    
    332000   297.13013     -4259.0125      1349.1197     -1465.3349     -499.25723      18187.474    
    333000   303.83371     -4248.8479      1374.5249     -1397.1743      1004.6899      17968.666    
    334000   304.78644     -4261.45        1375.4714     -1404.198      -228.66116      18013.583    
    335000   301.96184     -4213.603       1381.1251     -1364.4296      1536.8992      18017.637    
    336000   316.10744     -4279.6617      1372.3898     -1370.4519     -276.09202      18267.748    
    337000   300.92794     -4302.7376      1375.3169     -1464.3989      207.31566      18353.14     
    338000   300.09783     -4272.5571      1393.369      -1420.2021      355.20176      18299.105    
    339000   304.17119     -4228.2299      1379.5413     -1369.8992     -699.26086      18341.33     
    340000   283.92774     -4257.8451      1385.3414     -1492.1319      656.81815      18354.435    
    341000   303.87338     -4238.3302      1375.4135     -1385.5751      118.80713      18231.113    
    342000   297.50579     -4315.7464      1438.9235     -1430.4387      253.94922      18153.981    
    343000   293.88123     -4220.3785      1383.6752     -1407.9406      1495.5198      17847.538    
    344000   297.11852     -4297.0431      1379.6082     -1472.9334      1116.021       18191.057    
    345000   295.94181     -4248.8094      1366.1766     -1443.8522     -673.75613      18256.012    
    346000   304.56705     -4232.2908      1328.0061     -1423.5707      1208.1968      18374.748    
    347000   303.682       -4295.184       1387.318      -1431.4548     -428.97781      18108.251    
    348000   305.78528     -4267.9575      1399.1059     -1382.2149     -407.77231      18165.87     
    349000   295.91917     -4249.9312      1373.0445     -1438.2161     -357.07526      18137.208    
    350000   300.6947      -4328.4266      1440.9864     -1425.5524      245.55917      17844.35     
    351000   298.9755      -4316.5316      1392.3477     -1470.6544     -27.22273       17934.097    
    352000   303.94265     -4245.2239      1365.0257     -1402.52       -87.566779      18245.825    
    353000   298.10376     -4276.1243      1397.9098     -1428.9232     -386.02783      18091.658    
    354000   306.41958     -4208.8254      1392.6897     -1326.4152      1383.6197      18133.363    
    355000   291.56511     -4224.3558      1372.5569     -1434.2964     -943.57606      18419.11     
    356000   301.05415     -4270.6825      1383.3651     -1423.6821     -277.71473      18011.136    
    357000   294.93669     -4279.6633      1340.886      -1504.8833      561.05249      17968.855    
    358000   301.3305      -4332.2904      1392.0282     -1475.2833      1072.5583      17750.235    
    359000   300.10977     -4252.6595      1358.8234     -1434.7921      2429.5129      17913.947    
    360000   298.86251     -4250.5419      1385.827      -1411.7347      1821.0236      18039.476    
    361000   296.90297     -4254.1913      1411.6719     -1399.0659      520.19427      18250.527    
    362000   300.43309     -4274.2592      1313.0863     -1500.5571     -1054.3066      18103.907    
    363000   291.3291      -4227.9196      1375.5628     -1436.0017      898.4789       18368.726    
    364000   305.88169     -4233.472       1369.7461     -1376.6206      335.03831      18010.493    
    365000   305.15029     -4256.5389      1413.5413     -1359.4481     -1114.9729      18194.178    
    366000   300.29271     -4226.079       1368.3523     -1397.7933      408.11879      18113.818    
    367000   297.60916     -4299.6576      1374.0149     -1478.7559     -1571.6042      18128.185    
    368000   293.91342     -4277.2891      1386.438      -1461.9319     -637.41165      17903.09     
    369000   299.63683     -4280.8719      1398.8001     -1425.3271     -524.57363      18356.526    
    370000   307.8378      -4280.8378      1407.939      -1376.2834      191.59223      18108.674    
    371000   310.6755      -4237.7213      1402.4567     -1324.8531     -791.60297      18401.974    
    372000   300.35052     -4305.7216      1369.3009     -1476.2063      561.73924      17902.528    
    373000   312.13258     -4260.8414      1419.3033     -1324.0428      22.784391      18002.544    
    374000   300.46559     -4233.456       1381.5737     -1391.1084      1086.3157      18212.183    
    375000   295.79417     -4257.5313      1384.3626     -1435.1059      2411.4291      18155.568    
    376000   300.5784      -4273.9293      1377.7338     -1434.8731     -269.48968      17939.194    
    377000   299.62034     -4261.614       1350.1281     -1454.8214      2425.4976      18031.973    
    378000   300.66062     -4282.6419      1392.5018     -1428.4181      416.62409      18270.189    
    379000   296.57003     -4251.8785      1376.2018     -1433.8418      345.27102      18111.986    
    380000   295.41014     -4182.9571      1349.8374     -1396.9238      1609.3927      18245.221    
    381000   309.73031     -4270.4915      1410.7724     -1353.9029     -908.19648      18340.596    
    382000   288.08786     -4228.6956      1354.0556     -1474.0429      823.21202      18235.595    
    383000   300.80584     -4255.5377      1354.074      -1439.0356     -715.59535      18208.04     
    384000   302.21377     -4225.0303      1395.731      -1360.0263     -1469.2811      18504.85     
    385000   298.62727     -4216.7591      1374.1591     -1390.7634     -128.74727      18351.72     
    386000   292.33049     -4220.0998      1372.8307     -1426.0455      938.90546      18063.798    
    387000   302.45962     -4358.4295      1398.6502     -1489.311      -235.31704      18082.427    
    388000   314.82045     -4292.2707      1411.9618     -1349.746      -496.7327       17953.863    
    389000   294.93914     -4250.8268      1368.1354     -1448.7854     -1894.5735      18497.182    
    390000   292.51917     -4231.6148      1401.3044     -1408.1696      264.43332      18586.539    
    391000   295.57212     -4278.669       1433.7608     -1407.9249     -887.15265      18134.08     
    392000   313.46764     -4243.5536      1414.8085     -1304.7591      1934.1587      18204.734    
    393000   296.21681     -4230.7044      1373.8673     -1416.7195      328.61939      18184.868    
    394000   299.05217     -4298.2508      1383.0811     -1461.2675     -1384.0694      18303.027    
    395000   293.30231     -4271.1007      1379.4533     -1465.6992      809.89296      18274.389    
    396000   294.38464     -4268.5274      1406.8813     -1430.436      -1387.8571      18181.121    
    397000   300.52233     -4266.0428      1417.932      -1387.0611      453.83923      17954.241    
    398000   297.06715     -4286.9145      1366.9651     -1475.6978     -236.76566      18258.194    
    399000   305.7764      -4316.8119      1430.4941     -1399.7242      585.82627      18047        
    400000   304.94432     -4295.3875      1410.9277     -1401.9116      98.713999      17809.953    
    401000   304.54107     -4292.3334      1409.5889     -1402.1568     -133.39949      17974.03     
    402000   298.02619     -4246.0253      1365.8488     -1431.2622      880.17772      18196.857    
    403000   296.91797     -4260.4877      1410.6482     -1406.3131     -1214.0373      18303.639    
    404000   294.76163     -4292.8157      1378.7842     -1480.9886      324.34663      18038.316    
    405000   295.04418     -4293.5198      1397.8007     -1461.3024      960.08466      18153.604    
    406000   297.9099      -4286.4557      1384.3954     -1453.7114      335.85445      18061.145    
    407000   299.05252     -4338.9173      1426.397      -1458.6164     -2038.259       18053.918    
    408000   301.18001     -4305.4704      1395.6168     -1445.6065      1361.0986      18187.587    
    409000   302.87322     -4272.5018      1381.7786     -1418.2441      421.23575      18146.309    
    410000   308.89626     -4258.8589      1377.6906     -1379.407       1251.3014      18519.714    
    411000   300.34879     -4230.0714      1372.3986     -1397.4668      629.49792      18629.941    
    412000   313.3008      -4253.6075      1402.2605     -1328.1721     -1138.0347      18134.414    
    413000   285.11546     -4281.2701      1381.0064     -1514.1176      2884.6149      18263.883    
    414000   296.68556     -4242.1829      1376.1077     -1423.6787     -764.02218      18336.713    
    415000   308.82382     -4213.9717      1385.8495     -1326.7131      1569.1782      18185.152    
    416000   298.64418     -4249.7773      1390.5627     -1407.2958      538.84158      18422.363    
    417000   300.86981     -4258.798       1337.4932     -1458.5657      2744.2094      18077.358    
    418000   300.79606     -4288.5439      1384.7855     -1441.3778     -732.51134      17865.814    
    419000   294.65666     -4221.4113      1392.2984     -1396.5802      1997.4289      18062.657    
    420000   299.11093     -4337.3588      1415.6039     -1467.567      -289.26955      18063.033    
    421000   291.74013     -4254.6121      1359.8052     -1476.4536      47.893395      17933.215    
    422000   303.56582     -4280.2677      1373.9363     -1430.4852      920.25099      17952.37     
    423000   316.82985     -4289.8777      1403.4829     -1346.0627      355.16248      18066.099    
    424000   304.60903     -4276.7891      1364.6838     -1431.1872     -1579.9156      18118.96     
    425000   302.64198     -4353.4979      1388.9452     -1493.1978     -2240.6409      18203.758    
    426000   298.27867     -4276.0195      1394.4486     -1431.4291     -593.47955      18329.549    
    427000   312.27981     -4220.0274      1394.1974     -1307.6189      1610.0055      18207.604    
    428000   309.36507     -4268.6936      1336.6702     -1427.9829      282.27253      18447.177    
    429000   290.02046     -4281.0745      1439.1552     -1431.9266     -25.192364      18084.543    
    430000   300.01078     -4257.9677      1452.2227     -1347.1822      893.56018      18054.293    
    431000   298.00934     -4318.587       1384.3059     -1485.4488     -1583.7841      18476.089    
    432000   294.67513     -4340.584       1464.0355     -1443.9261     -437.43866      18253.461    
    433000   298.31444     -4325.8228      1392.7154     -1482.7917      543.60131      17879.277    
    434000   295.23344     -4217.9139      1407.4878     -1375.0894      2213.1261      18374.077    
    435000   307.51257     -4323.7899      1357.3331     -1471.4225      586.85706      17967.074    
    436000   304.1382      -4283.4438      1418.5967     -1386.218      -723.61646      18131.476    
    437000   315.12095     -4272.4419      1431.5276     -1308.8904     -1395.8397      18050.348    
    438000   293.091       -4243.7986      1402.6138     -1416.264       114.15364      17990.629    
    439000   288.24888     -4223.1872      1404.6927     -1417.1146      1164.833       18011.748    
    440000   310.31381     -4209.7654      1360.8485     -1340.2638     -1480.3688      18411.307    
    441000   311.4047      -4297.7916      1385.9254     -1397.9095     -1341.4989      18117.092    
    442000   298.80013     -4237.4798      1366.7603     -1418.0426      1523.8193      18042.532    
    443000   301.42352     -4270.1366      1373.0613     -1431.6442     -2285.0327      18340.704    
    444000   314.05441     -4229.5624      1373.8215     -1328.9023     -38.912448      18082.856    
    445000   302.46439     -4224.7423      1374.4864     -1379.7644     -176.17102      17727.751    
    446000   301.54659     -4242.0521      1373.5601     -1402.4626     -2397.2034      18157.683    
    447000   310.97938     -4218.0951      1377.7539     -1328.4524      1934.3762      18131.827    
    448000   298.91272     -4255.2341      1426.043      -1375.9667     -653.72693      18027.34     
    449000   298.95098     -4221.0799      1412.4945     -1355.1751     -542.55045      18177.668    
    450000   300.39076     -4212.0475      1361.9301     -1389.7073     -1079.1752      18456.275    
    451000   308.98745     -4186.7463      1358.1404     -1326.4013      1329.9378      18038.778    
    452000   297.30609     -4273.6656      1333.5557     -1494.6966      1105.5651      18005.034    
    453000   297.39393     -4266.9628      1402.8642     -1418.2582     -493.61746      18388.872    
    454000   300.52924     -4234.6376      1396.7096     -1376.8447      400.06563      18093.683    
    455000   294.3515      -4238.0939      1382.2325     -1424.8124     -445.40199      18027.705    
    456000   297.49194     -4255.2514      1362.8027     -1446.1318     -684.42269      17964.388    
    457000   294.15774     -4228.2785      1412.7453     -1385.4262     -337.81398      18409.238    
    458000   301.40244     -4284.1582      1370.5423     -1448.2873      313.97687      18409.93     
    459000   305.12745     -4205.1782      1418.9687     -1302.7709      86.702425      18228.413    
    460000   300.73022     -4220.754       1371.6667     -1387.0268     -722.90567      18224.417    
    461000   299.69403     -4208.3934      1349.2608     -1402.1098      560.02564      18268.274    
    462000   297.13079     -4207.0141      1323.8914     -1438.5616     -405.9178       18290.734    
    463000   302.01588     -4179.3513      1333.9598     -1377.0804      1314.9053      18111.175    
    464000   294.8775      -4229.2727      1346.3034     -1449.363      -166.86293      18144.252    
    465000   302.55545     -4193.5067      1349.6298     -1372.9427      760.28118      18098.128    
    466000   305.3481      -4213.0608      1394.2511     -1334.2984      117.20068      18250.877    
    467000   295.68028     -4193.2296      1380.0624     -1375.658      -593.93905      18306.747    
    468000   286.78224     -4215.4884      1396.524      -1424.7148     -262.23126      18642.98     
    469000   293.90962     -4217.0084      1449.5552     -1338.5524     -2228.3518      18112.905    
    470000   303.47436     -4250.4211      1377.8353     -1397.1842     -723.66032      18007.583    
    471000   292.34341     -4259.9583      1355.3676     -1483.3044      1601.8416      17902.822    
    472000   298.30697     -4240.2519      1405.5297     -1384.4428      422.43864      18235.93     
    473000   315.46772     -4256.7674      1391.5128     -1331.5449     -559.91468      18044.537    
    474000   304.30121     -4284.0092      1356.2199     -1448.3678      2135.5458      17901.084    
    475000   293.26611     -4262.3695      1423.2137     -1413.3836     -224.25154      17945.798    
    476000   291.2762      -4281.5939      1355.0603     -1510.4358      1728.7839      18199.792    
    477000   306.3072      -4294.7162      1413.3425     -1392.1996     -513.76937      18245.331    
    478000   299.15287     -4207.6112      1385.7297     -1367.4896      227.52169      17929.626    
    479000   287.87222     -4271.492       1382.6536     -1489.2897     -236.50328      18006.872    
    480000   301.30439     -4290.8482      1383.4256     -1442.5706     -892.41994      18037.049    
    481000   296.88109     -4290.8024      1391.9407     -1455.5145     -514.65058      18191.982    
    482000   293.5321      -4314.6854      1347.9985     -1539.6214      844.381        18032.504    
    483000   300.75695     -4281.8607      1357.6024     -1462.0679      529.73192      18191.302    
    484000   301.96714     -4281.336       1415.6713     -1397.5907     -1773.1314      17935.537    
    485000   304.69002     -4259.0599      1390.3241     -1387.424       1240.3898      18209.314    
    486000   300.77296     -4299.533       1362.0515     -1475.2133     -361.67418      17796.565    
    487000   294.18615     -4244.3401      1327.1595     -1486.9355      1870.0921      17792.814    
    488000   303.99433     -4291.7826      1358.7148     -1455.1381      1413.9681      17788.633    
    489000   303.6033      -4284.9888      1367.0454     -1441.9149      574.50223      18036.875    
    490000   305.2457      -4283.1339      1412.6755     -1386.445       946.71364      17863.163    
    491000   291.27807     -4263.4815      1354.063      -1493.3115     -438.90956      18244.552    
    492000   292.87126     -4216.396       1366.5593     -1425.9842     -306.98996      18292.021    
    493000   302.08974     -4244.3708      1394.6073     -1381.0934     -181.83916      18036.52     
    494000   303.76492     -4255.2596      1367.502      -1410.9433      1612.3867      17900.02     
    495000   304.85397     -4229.6827      1319.0559     -1428.5178      92.315525      18420.825    
    496000   307.64978     -4212.132       1392.6231     -1323.8076     -279.0755       18201.593    
    497000   298.4581      -4207.725       1322.1697     -1434.5412      208.24543      18278.676    
    498000   280.07668     -4190.9057      1365.243      -1464.0135     -527.80906      18222.852    
    499000   303.95179     -4231.6239      1381.8536     -1372.0475     -1240.6759      18463.041    
    500000   299.66101     -4198.8485      1376.6319     -1365.3542      1765.6999      18098.307    
    501000   301.43122     -4248.3783      1383.2231     -1399.6867      152.13441      18256.92     
    502000   297.50038     -4288.7776      1420.0172     -1422.4025      2516.3729      17778.266    
    503000   297.11863     -4308.474       1350.4154     -1513.5565      2861.6238      17962.316    
    504000   299.47165     -4237.5211      1353.4548     -1428.1246      1459.6611      17757.486    
    505000   311.8347      -4206.4008      1330.9177     -1359.436       625.38325      18179.806    
    506000   299.79608     -4277.1637      1380.1333     -1439.5114      68.477166      17923.147    
    507000   295.45534     -4235.22        1375.0275     -1423.7769     -742.06867      18024.369    
    508000   313.65855     -4252.6814      1375.2597     -1352.5075     -1190.532       18239.614    
    509000   293.93999     -4307.2246      1390.5632     -1487.613       967.89692      18203.519    
    510000   298.77649     -4310.7591      1406.7558     -1451.4413     -1020.3894      18012.779    
    511000   295.61617     -4312.1482      1411.2873     -1463.6635      1655.527       17983.753    
    512000   304.55373     -4283.304       1427.9528     -1374.702      -450.02069      18015.072    
    513000   306.19986     -4292.2085      1442.6788     -1360.8775      187.9916       18222.281    
    514000   289.304       -4272.2135      1429.0876     -1436.6163     -1345.1281      18128.599    
    515000   299.26502     -4283.1225      1351.8236     -1476.3618     -201.20692      17933.939    
    516000   297.22326     -4280.363       1402.2685     -1433.0838     -3357.033       18287.874    
    517000   306.85177     -4280.2966      1362.547      -1425.928      -1450.6556      18092.757    
    518000   300.97639     -4301.0621      1334.2611     -1503.5436      574.88321      17800.837    
    519000   301.22775     -4250.0313      1368.6234     -1416.9285      969.82303      18245.269    
    520000   290.15135     -4279.0008      1420.2129     -1448.1587      1764.7082      18270.039    
    521000   291.02068     -4273.3247      1363.0482     -1495.421      -265.161        18030.593    
    522000   292.13519     -4217.8069      1335.6861     -1461.8468      360.59588      18103.664    
    523000   300.60542     -4244.1038      1346.9377     -1435.7123      135.13761      18160.661    
    524000   298.05306     -4276.3707      1335.7191     -1491.6066     -433.05844      17825.344    
    525000   304.53195     -4267.6477      1379.8882     -1407.2162     -1019.0992      17888.377    
    526000   289.2767      -4233.9658      1389.1886     -1438.4003      1690.0645      17888.018    
    527000   317.81121     -4255.0663      1365.713      -1344.2501      1433.7912      18007.495    
    528000   304.66288     -4211.7945      1370.4223     -1360.1923      487.59681      18007.526    
    529000   306.65344     -4295.6473      1371.1244     -1433.6655      413.19362      17798.191    
    530000   297.80579     -4246.8971      1403.2671     -1395.7872      2196.8477      17706.666    
    531000   311.0432      -4308.1194      1377.5505     -1418.3698      761.40684      17935.737    
    532000   305.03827     -4287.653       1404.9108     -1399.7372      95.914851      18054.457    
    533000   295.10259     -4275.144       1393.1524     -1447.291      -1108.6122      18069.081    
    534000   318.07853     -4266.5656      1369.4025     -1350.7603      919.70083      17948.463    
    535000   297.21621     -4301.7367      1456.0082     -1400.752      -1120.3388      17916.665    
    536000   296.26898     -4242.6494      1371.8605     -1430.4176      1676.8181      18220.205    
    537000   310.51259     -4251.4715      1417.1365     -1324.7155     -513.87723      18048.487    
    538000   305.4532      -4250.3717      1397.0932     -1368.2563     -285.40029      18041.94     
    539000   294.89349     -4257.1447      1374.1658     -1449.2949      1212.334       18322.987    
    540000   295.50327     -4323.0031      1393.0208     -1493.3336     -1051.9653      18031.683    
    541000   298.38925     -4271.5403      1369.083      -1451.778      -1142.8993      18167.092    
    542000   304.4657      -4236.1917      1387.9474     -1368.023      -344.28171      17982.454    
    543000   292.20695     -4247.9999      1378.4979     -1448.8791      586.73641      18237.227    
    544000   296.7855      -4205.1293      1344.2136     -1418.0332      349.95421      18293.205    
    545000   304.38357     -4193.8512      1366.7376     -1347.2916      939.02633      18196.762    
    546000   294.99892     -4150.2626      1360.0914     -1355.9745      1152.9687      18259.724    
    547000   296.14253     -4207.4208      1396.2684     -1371.396       171.62587      18306.935    
    548000   296.07921     -4262.8728      1399.5498     -1423.8744      1704.6343      18044.555    
    549000   301.42836     -4273.78        1350.7582     -1457.5672      966.13102      18039.136    
    550000   298.60116     -4237.5502      1390.2007     -1395.6399     -279.03052      18300.534    
    551000   299.87948     -4242.3024      1380.7633     -1403.6147      2027.9208      17922.971    
    552000   309.89905     -4251.3043      1383.5401     -1361.1276      1664.5511      18187.697    
    553000   297.74957     -4223.6029      1360.4592     -1415.5742     -566.83527      18103.79     
    554000   301.31261     -4202.8281      1371.0641     -1366.8722      3211.3141      18094.964    
    555000   299.00858     -4258.1966      1372.7014     -1431.8049      1513.8511      18076.631    
    556000   300.97689     -4266.6944      1387.9846     -1415.4501      1225.5768      17908.857    
    557000   299.10153     -4260.9529      1402.4322     -1404.3785      1591.7007      18079.473    
    558000   295.34472     -4245.504       1356.0334     -1453.5928      672.60153      17851.091    
    559000   306.75001     -4273.3924      1399.7409     -1382.3246     -495.64994      17932.865    
    560000   292.80185     -4276.1601      1430.6733     -1421.9717     -1926.0954      18093.702    
    561000   298.82935     -4225.6009      1391.9429     -1380.839       1216.4131      17931.801    
    562000   301.18847     -4234.0158      1362.1595     -1407.568       623.19224      17842.435    
    563000   299.8346      -4220.4821      1356.3839     -1406.392       561.22549      18177.074    
    564000   302.05976     -4248.4249      1359.7821     -1420.1185      41.02904       18212.982    
    565000   294.90673     -4237.6772      1381.8026     -1422.1262     -1048.6566      18068.603    
    566000   284.41686     -4242.0429      1370.96       -1488.333       344.46781      18181.212    
    567000   293.67174     -4191.5634      1352.6766     -1411.1426     -550.59859      18157.566    
    568000   309.13475     -4215.9778      1431.2646     -1281.7925      248.73018      18033.05     
    569000   295.51612     -4319.4356      1394.337      -1488.3876     -895.45283      17867.181    
    570000   292.44918     -4318.9935      1392.7213     -1504.4717      727.82012      17916.22     
    571000   297.98628     -4202.0304      1370.4492     -1382.8609     -1139.9236      18239.368    
    572000   304.70369     -4281.3158      1405.3041     -1394.6334     -484.79697      18074.349    
    573000   299.53136     -4330.7884      1429.0836     -1445.4729      105.54022      18160.634    
    574000   303.23148     -4272.533       1394.9717     -1403.3405      2326.2373      18076.062    
    575000   293.12131     -4342.2393      1422.7771     -1494.394      -730.31192      18153.821    
    576000   294.26676     -4262.0491      1396.1487     -1435.2633     -740.16317      18114.925    
    577000   302.9718      -4269.3368      1420.5379     -1375.8405      104.54189      18208.082    
    578000   299.0866      -4279.5759      1454.997      -1370.5092     -441.53054      18341.07     
    579000   294.51027     -4281.2354      1343.418      -1505.9965      1372.5596      17791.891    
    580000   297.31974     -4271.2559      1435.3959     -1390.3803      1311.7547      18083.451    
    581000   309.69846     -4224.8623      1403.0781     -1316.1228      949.89135      18400.381    
    582000   298.15548     -4119.9355      1343.3841     -1327.0085     -45.608283      18672.323    
    583000   305.09874     -4184.7642      1426.0053     -1275.46        119.31259      18363.942    
    584000   306.89556     -4244.2525      1420.0522     -1332.1658     -1786.9669      18574.614    
    585000   314.22129     -4263.7744      1419.4286     -1316.6958     -145.8973       18221.202    
    586000   300.75582     -4287.273       1396.6941     -1428.394      -1346.973       18310.58     
    587000   290.99235     -4171.2542      1370.0501     -1386.4863      1340.6713      18619.927    
    588000   308.17206     -4298.0642      1385.0046     -1414.8191      420.42967      18264.707    
    589000   294.19116     -4229.508       1348.6013     -1450.6373     -79.582809      18414.121    
    590000   294.26739     -4220.0825      1418.6374     -1370.805      -613.63554      18264.693    
    591000   294.42843     -4226.5766      1364.8242     -1430.3294      70.583536      18199.893    
    592000   293.49594     -4269.9893      1376.4342     -1466.6655     -2000.3427      18164.179    
    593000   319.03879     -4234.5581      1353.6796     -1329.8072     -1150.8189      18361.773    
    594000   309.52999     -4229.1467      1428.6691     -1295.6353      1500.9025      18251.858    
    595000   296.82255     -4285.0222      1443.069      -1398.8907     -325.66163      18009.692    
    596000   298.88018     -4296.7022      1369.9555     -1473.6806      2090.6134      18043.185    
    597000   305.85086     -4324.0876      1400.0256     -1437.1065     -736.91776      17856.833    
    598000   295.86911     -4230.0158      1394.4251     -1397.1635      72.894655      18204.791    
    599000   288.15106     -4255.8355      1391.8732     -1463.0579     -323.08151      18026.689    
    600000   293.11645     -4206.4605      1390.6327     -1390.7833      1263.997       18203.554    
    601000   285.23173     -4247.0047      1372.4036     -1487.8897      1482.3008      18127.215    
    602000   303.66489     -4239.1399      1392.8312     -1369.9807      1621.4029      18156.053    
    603000   304.95136     -4210.7293      1342.8264     -1385.3205      1363.2001      18332.733    
    604000   298.41699     -4214.4207      1341.4388     -1422.1677      136.10189      18410.943    
    605000   304.85359     -4244.2335      1381.5411     -1380.5853     -309.24754      18414.775    
    606000   296.14082     -4239.4757      1409.0852     -1390.6423     -844.39216      18271.431    
    607000   301.04965     -4254.4151      1380.6835     -1410.1182      820.30902      18116.058    
    608000   303.55415     -4255.2468      1390.2714     -1389.1858     -928.40285      18378.362    
    609000   307.20285     -4192.0982      1354.9109     -1343.6588      1588.0619      18085.876    
    610000   303.37693     -4208.9503      1383.2017     -1350.8207     -748.31247      18498.545    
    611000   289.72087     -4250.2281      1335.4605     -1506.2312      427.52856      18215.539    
    612000   297.84517     -4233.2535      1366.513      -1418.7063      1162.5163      18540.827    
    613000   302.25191     -4231.3581      1364.0816     -1397.8181     -18.65877       18542.901    
    614000   296.4795      -4196.3745      1351.4717     -1403.5081     -164.91429      18467.546    
    615000   294.40261     -4231.6609      1374.5598     -1425.8036     -377.8143       18178.742    
    616000   304.17257     -4238.902       1352.9316     -1407.1743      1278.2352      18046.055    
    617000   288.58717     -4221.4831      1373.8578     -1444.6007      693.50677      18120.54     
    618000   294.55961     -4270.6549      1417.3402     -1421.2538      75.259722      18044.527    
    619000   306.80856     -4267.104       1322.0397     -1453.4528      1828.0632      17909.238    
    620000   303.74657     -4255.06        1404.721      -1373.6139      506.30398      18068.598    
    621000   302.40586     -4286.5712      1403.5549     -1412.8093     -617.92816      18255.887    
    622000   292.6661      -4347.079       1375.9475     -1548.2764     -832.75328      17883.358    
    623000   308.34928     -4305.8761      1416.4744     -1390.2997      963.02911      17863.628    
    624000   294.00991     -4311.246       1402.3765     -1479.4812     -1172.6907      17776.584    
    625000   295.32278     -4227.3876      1364.3652     -1427.2513     -1521.2439      17993.714    
    626000   299.42923     -4187.2262      1376.7222     -1354.7686      178.79959      18132.593    
    627000   294.84189     -4280.9105      1378.0612     -1469.4161     -445.56471      18305.498    
    628000   303.52873     -4285.2385      1402.8637     -1406.7088      65.946734      18038.59     
    629000   300.98243     -4267.1344      1392.8414     -1411.0063      116.29215      18097.628    
    630000   294.70132     -4306.1667      1378.754      -1494.6629     -1657.698       18176.936    
    631000   303.56457     -4245.0421      1393.9319     -1375.27        1672.3919      18037.389    
    632000   299.4556      -4329.2004      1348.8583     -1524.4785      1504.3506      17928.144    
    633000   300.82587     -4353.5459      1381.614      -1509.4064     -1076.4025      18034.487    
    634000   298.88958     -4250.573       1369.6309     -1427.8303     -427.59853      18174.56     
    635000   302.44377     -4281.6463      1380.4484     -1430.8066      685.57485      18149.187    
    636000   307.09246     -4184.1519      1353.3849     -1337.7752     -1197.5297      18557.939    
    637000   296.14502     -4226.8449      1350.8075     -1436.2688      190.0708       18173.416    
    638000   296.4225      -4250.931       1391.7979     -1418.0155      214.85875      18079.225    
    639000   302.04723     -4292.6037      1397.417      -1426.7234     -507.42507      18066.274    
    640000   304.57003     -4264.8443      1408.0915     -1376.0243     -2975.3387      17979.381    
    641000   281.33871     -4282.1444      1433.2147     -1481.145      -458.56896      18119.29     
    642000   305.53517     -4310.3792      1358.7724     -1466.1861     -452.14666      18127.152    
    643000   303.65912     -4269.8902      1377.5132     -1416.0772      314.70829      18000.114    
    644000   299.12505     -4290.2846      1341.9671     -1494.0609      915.31676      18049.551    
    645000   293.80607     -4294.3129      1407.3291     -1458.5865     -1209.0051      17972.982    
    646000   300.22051     -4242.7872      1361.5218     -1421.683      -867.9347       18417.469    
    647000   306.77979     -4253.4267      1369.2006     -1392.7544     -1743.7022      18289.888    
    648000   290.52881     -4222.6844      1371.2327     -1438.9875      724.38186      18144.778    
    649000   300.20579     -4278.8718      1358.9717     -1460.3892      2293.5412      18062.634    
    650000   300.58383     -4297.6922      1349.4854     -1486.858       938.12561      17979.651    
    651000   293.9745      -4236.0993      1373.4091     -1433.4741     -221.73763      18307.106    
    652000   293.11958     -4249.0986      1412.2583     -1411.7805      74.200483      18010.613    
    653000   297.59781     -4280.7714      1412.302      -1421.6378     -2360.2493      17885.974    
    654000   294.94141     -4308.2907      1368.039      -1506.3348     -1568.1023      18184.721    
    655000   302.26278     -4249.57        1391.2386     -1388.8201      337.82493      18303.651    
    656000   297.53858     -4267.4905      1387.8807     -1433.0661      510.49817      18244.832    
    657000   307.90887     -4231.7304      1377.5205     -1357.249       882.07389      18160.27     
    658000   290.51167     -4212.7386      1351.025      -1449.3326     -123.8296       18333.201    
    659000   302.0148      -4220.5295      1334.2924     -1417.9313      1023.5281      18052.119    
    660000   300.68778     -4239.7402      1334.6971     -1443.189       158.14675      18053.689    
    661000   299.05831     -4219.6358      1384.0191     -1381.6846      160.65525      18408.677    
    662000   305.533       -4199.167       1396.1087     -1317.6482      775.96437      18426.292    
    663000   303.37718     -4280.4763      1442.0473     -1363.4998      1624.7158      18204.437    
    664000   297.06812     -4239.5469      1396.4794     -1398.8111      42.498389      18184.54     
    665000   305.20609     -4239.5487      1408.8039     -1346.924       913.94141      17969.877    
    666000   292.57888     -4214.1581      1336.9985     -1454.7286      1042.9859      18096.973    
    667000   296.26729     -4306.7006      1404.8868     -1461.4508     -173.043        17840.151    
    668000   289.39641     -4305.191       1421.0992     -1477.1329     -1994.6262      18253.71     
    669000   296.95055     -4250.8214      1416.6985     -1390.438      -1464.3933      18155.906    
    670000   296.34185     -4310.9664      1396.3465     -1473.8943     -142.95378      17935.001    
    671000   303.63063     -4280.8975      1370.758      -1433.9781      1225.8372      17984.037    
    672000   305.31385     -4272.6483      1392.9117     -1395.3919      855.80488      17964.085    
    673000   301.40567     -4308.9305      1401.3044     -1442.2818     -1330.3873      18101.604    
    674000   298.05279     -4334.0543      1404.4497     -1480.561       1891.1221      18058.569    
    675000   291.80254     -4353.9314      1380.8261     -1554.4486     -2717.4916      18021.559    
    676000   295.7374      -4326.6018      1381.2059     -1507.6091     -592.74626      18245.382    
    677000   304.5486      -4318.3603      1406.5859     -1431.1501      45.963769      18327.161    
    678000   291.22592     -4284.7148      1403.5997     -1465.2617      294.23224      18081.766    
    679000   294.54849     -4287.3058      1365.9024     -1489.3967     -92.311155      18003.992    
    680000   293.43725     -4265.3425      1424.5672     -1414.1711     -1522.3003      18148.292    
    681000   309.41105     -4252.294       1398.9718     -1349.0582     -1185.8155      18308.133    
    682000   296.06741     -4256.5689      1336.2161     -1480.9615     -1162.531       17883.288    
    683000   297.40618     -4222.3938      1367.1588     -1409.3351      76.460977      18095.598    
    684000   301.56747     -4189.2926      1415.9449     -1307.2168     -653.74683      18371.819    
    685000   301.11992     -4290.0323      1415.6106     -1410.4666     -449.47189      18255.976    
    686000   299.96033     -4240.7359      1384.804      -1397.6144      1036.4042      18283.253    
    687000   292.69682     -4248.1052      1412.7603     -1412.3405     -1946.5586      18193.257    
    688000   300.85353     -4264.6185      1394.1231     -1407.8355     -145.07036      18284.479    
    689000   304.35496     -4257.8521      1371.0003     -1407.169      -1235.3602      18366.726    
    690000   301.99508     -4204.7571      1401.9162     -1334.6311     -610.87706      18410.463    
    691000   306.15764     -4204.3303      1373.6135     -1342.2698     -1678.7359      18426.289    
    692000   291.58981     -4218.7661      1373.756      -1427.3876     -523.65622      18399.284    
    693000   293.82885     -4209.9626      1390.4293     -1391.0252     -18.162122      18261.741    
    694000   289.12287     -4280.7553      1400.4365     -1474.6898     -1250.6752      18337.166    
    695000   298.99772     -4255.2546      1393.644      -1407.9731      851.12832      18112.231    
    696000   302.81038     -4250.7783      1376.3142     -1402.2905      1153.4517      18046.139    
    697000   307.40639     -4291.4116      1373.1052     -1423.7884     -226.1348       18087.687    
    698000   305.23848     -4293.5298      1386.7722     -1422.7794     -105.94724      18108.793    
    699000   308.03086     -4276.3736      1350.5779     -1428.2418      720.96874      17977.713    
    700000   295.25143     -4311.8967      1357.0228     -1519.4497     -23.487851      18230.751    
    701000   305.34968     -4194.5453      1385.2846     -1324.7418      406.78382      18538.307    
    702000   301.24693     -4264.4437      1359.7575     -1440.1136     -621.90918      18229.124    
    703000   316.85392     -4238.3052      1379.2253     -1318.6308      669.91377      18179.589    
    704000   290.44458     -4249.1971      1405.9849     -1431.1574      281.2939       18225.827    
    705000   298.02571     -4261.8302      1402.6397     -1410.2785      1685.8153      17976.543    
    706000   291.95042     -4276.7011      1431.13       -1426.1954      511.25414      17980.759    
    707000   298.90024     -4272.4389      1408.0538     -1411.2214      1102.1153      17979.719    
    708000   310.54079     -4289.9777      1387.8786     -1392.3426      1140.7952      18172.825    
    709000   295.82358     -4292.4113      1414.2654     -1439.94        611.7585       18254.063    
    710000   306.89186     -4242.7121      1421.0334     -1329.6621     -485.13081      17945.399    
    711000   302.3032      -4265.8791      1377.8548     -1418.3164      2434.4838      17959.165    
    712000   293.44904     -4255.3222      1394.862      -1433.7987     -228.38345      18127.233    
    713000   307.82832     -4257.3201      1389.488      -1371.2628      2637.7198      17928.153    
    714000   291.82633     -4302.3996      1403.5389     -1480.0882      442.72216      18167.562    
    715000   300.69477     -4274.9039      1403.0638     -1409.9519     -893.28923      18008.271    
    716000   302.45719     -4261.5517      1405.1979     -1385.8973      1420.3298      18080.613    
    717000   287.15841     -4229.7362      1398.5411     -1435.1168     -361.66915      18282.303    
    718000   294.69797     -4230.5964      1321.7268     -1476.1361      3272.0447      17967.264    
    719000   302.82661     -4285.9727      1390.434      -1423.2862      552.30964      18378.951    
    720000   297.13442     -4304.317       1388.5364     -1471.2019     -634.96143      18319.798    
    721000   303.33701     -4270.5094      1401.7704     -1394.0051      309.90439      18180.009    
    722000   305.40367     -4304.4207      1369.6922     -1449.9471      143.69143      18244.724    
    723000   307.43223     -4228.9678      1395.1738     -1339.1503     -271.05141      18529.087    
    724000   295.51301     -4205.0399      1383.758      -1384.586       1493.2044      18213.772    
    725000   291.97908     -4282.6944      1371.4078     -1491.7716     -398.92262      17980.792    
    726000   300.58377     -4317.407       1394.7322     -1461.3263      1688.0293      17749.136    
    727000   296.26872     -4353.9492      1377.8084     -1535.7708     -418.28455      17755.674    
    728000   299.4443      -4274.5362      1392.1531     -1426.5743     -206.8424       17987.976    
    729000   299.76616     -4304.8446      1413.8119     -1433.6593      1649.1345      17989.452    
    730000   296.36441     -4326.3857      1362.1057     -1523.4447     -863.89631      18068.015    
    731000   316.55949     -4333.3669      1379.7116     -1414.6377     -35.797115      17877.031    
    732000   303.83143     -4271.6437      1403.0585     -1391.4476     -511.16098      18026.689    
    733000   289.08789     -4262.1536      1414.8934     -1441.8013      1757.845       18231.402    
    734000   308.50884     -4299.7718      1393.7766     -1406.1173     -744.78132      18146.116    
    735000   301.18857     -4260.6278      1359.9569     -1436.3821      281.9646       18207.467    
    736000   300.86872     -4248.0176      1385.2872     -1399.9965      453.30643      18076.546    
    737000   301.35938     -4264.3897      1402.2312     -1397.0392     -781.73318      18316.54     
    738000   310.98677     -4260.0094      1415.7308     -1332.3538      1423.5877      18152.216    
[...]
   9823000   298.22374     -4210.8854      1400.6739     -1360.3367      0.27214185     18083.394    
   9824000   308.3372      -4336.9417      1394.7903     -1443.1081      1075.9008      17826.679    
   9825000   308.22336     -4214.0564      1387.654      -1327.9125      1423.2117      18135.195    
   9826000   297.94684     -4259.6956      1401.0927     -1410.0744     -88.74062       18067.517    
   9827000   294.11448     -4293.5334      1400.2602     -1463.3766      420.13446      18008.768    
   9828000   312.31502     -4248.0727      1384.6059     -1345.0845      1261.3363      18562.464    
   9829000   296.391       -4233.54        1385.4389     -1407.1366     -534.55474      18342.776    
   9830000   297.58629     -4203.6549      1361.9741     -1394.9052     -1462.3455      18457.344    
   9831000   297.66695     -4184.5749      1336.5029     -1400.9043      1733.3537      18333.461    
   9832000   304.86159     -4153.5216      1390.2895     -1281.0862      851.32696      18218.239    
   9833000   298.57287     -4205.8577      1388.3606     -1365.9249      416.35993      18416.465    
   9834000   298.2298      -4298.777       1405.4212     -1443.4516     -2601.1532      18212.198    
   9835000   297.4372      -4293.6561      1429.8924     -1417.7128     -3166.8543      18047.333    
   9836000   302.74294     -4223.4548      1365.2409     -1386.3682      707.88472      18258.993    
   9837000   306.64751     -4238.9593      1421.9801     -1326.1507     -1381.883       18494.151    
   9838000   294.09789     -4261.9953      1403.2501     -1428.9292     -1397.598       18294.227    
   9839000   300.77037     -4238.1396      1387.11       -1388.774       613.44415      18430.08     
   9840000   294.98447     -4221.5167      1379.8261     -1407.5642     -1329.4656      18195.186    
   9841000   299.59929     -4172.2964      1376.3083     -1339.4259     -45.916565      18529.851    
   9842000   295.64454     -4225.2428      1381.292      -1406.6154     -73.860499      18346.441    
   9843000   291.57709     -4287.2918      1376.0797     -1493.6514      1845.4121      17936.934    
   9844000   307.27569     -4212.1981      1386.487      -1331.8285     -294.39235      18496.141    
   9845000   285.95013     -4177.5834      1353.1348     -1434.2446      436.29104      18519.038    
   9846000   309.58726     -4186.0338      1384.8753     -1296.0377     -213.07916      18322.315    
   9847000   298.18733     -4221.7258      1357.8163     -1414.2119     -810.24235      18520.475    
   9848000   305.49413     -4188.1937      1341.8067     -1361.1658      1672.4201      18271.68     
   9849000   296.52802     -4208.9866      1367.5993     -1399.7567      711.46126      18352.017    
   9850000   303.79429     -4227.0063      1384.3436     -1365.7057      131.87878      18020.66     
   9851000   301.11051     -4203.0553      1368.3481     -1370.7979      549.57537      18283.262    
   9852000   302.13951     -4243.1859      1372.3851     -1401.8888     -113.99197      17971.133    
   9853000   308.67352     -4305.5971      1340.1793     -1464.7394      970.75936      18221.152    
   9854000   300.54511     -4269.5665      1367.2623     -1441.1437      205.9151       18128.828    
   9855000   296.29106     -4252.1418      1403.237      -1408.4262     -1212.1472      18134.506    
   9856000   305.78833     -4203.6657      1400.0964     -1316.9178      1825.0187      18462.546    
   9857000   299.57877     -4180.5464      1346.9244     -1377.1595      997.95346      18348.02     
   9858000   306.50425     -4260.381       1345.4943     -1424.7546     -312.17831      18202.741    
   9859000   300.61328     -4279.8085      1426.8755     -1391.441      -509.71729      18492.431    
   9860000   302.24628     -4248.2726      1421.4424     -1357.3991      412.47701      18297.503    
   9861000   290.74159     -4316.1158      1438.6915     -1463.9255     -594.65727      18314.606    
   9862000   304.76598     -4283.0366      1438.7481     -1362.6073     -2516.4049      18300.394    
   9863000   301.43553     -4310.0958      1403.2111     -1441.3952     -2222.6948      18056.778    
   9864000   297.82261     -4275.1477      1367.052      -1460.1712      2388.0654      18254.013    
   9865000   305.64076     -4325.1487      1417.7217     -1421.4929      2689.5054      18082.804    
   9866000   308.43122     -4265.3459      1419.0758     -1346.7697      931.43824      18228.567    
   9867000   301.81734     -4311.5048      1416.6868     -1427.4723      694.54583      18215.029    
   9868000   302.8947      -4323.6792      1368.9308     -1482.1649     -144.12919      18221.984    
   9869000   301.00912     -4297.2477      1413.2158     -1420.6155      914.23632      17908.943    
   9870000   281.39899     -4329.8667      1389.8813     -1571.9076      538.32441      18161.242    
   9871000   303.40158     -4362.3304      1338.3899     -1548.8927      2294.3164      17781.439    
   9872000   299.20499     -4346.2866      1371.4748     -1520.1665     -1279.5503      17927.611    
   9873000   304.05142     -4288.4363      1385.3449     -1424.8842      1094.4022      17821.838    
   9874000   302.9511      -4313.5482      1342.8293     -1497.8612     -854.94004      18106.585    
   9875000   306.31442     -4273.3562      1379.6851     -1404.4619     -384.21485      18137.928    
   9876000   308.98584     -4284.9958      1368.2188     -1414.5802     -928.07953      17793.668    
   9877000   308.54306     -4278.5465      1312.6797     -1465.8226      3013.0167      17764.221    
   9878000   295.46187     -4305.1896      1443.628      -1425.1143     -1911.6328      18200.532    
   9879000   289.11907     -4256.7074      1362.4217     -1488.6752     -213.57386      18344.54     
   9880000   298.8861      -4255.931       1425.7332     -1377.1029     -1127.8368      18203.421    
   9881000   295.04374     -4251.8329      1413.4829     -1403.9355      1948.7203      18106.533    
   9882000   303.97069     -4319.8001      1424.9217     -1417.0637      853.27133      17994.399    
   9883000   299.90546     -4287.7465      1344.1947     -1485.5011     -98.22881       18168.853    
   9884000   307.11735     -4285.1785      1396.615      -1395.4507      2235.368       17934.102    
   9885000   302.33417     -4269.399       1388.5833     -1410.9572     -1202.8674      18241.206    
   9886000   293.9287      -4306.2783      1394.7456     -1482.5392      237.80275      18222.198    
   9887000   309.16153     -4261.5663      1375.2618     -1383.2534     -175.26018      18041.025    
   9888000   299.3143      -4256.9234      1384.5762     -1417.1705      113.77473      18088.731    
   9889000   300.78123     -4193.4586      1335.5811     -1395.5691     -1406.0507      18379.435    
   9890000   296.32245     -4222.029       1383.0698     -1398.3279      493.81854      18392.899    
   9891000   304.63753     -4267.7716      1360.2653     -1426.4496      2077.9631      18133.016    
   9892000   302.57355     -4320.8584      1403.8271     -1446.0091     -1676.9449      17984.108    
   9893000   286.44269     -4277.2069      1406.8006     -1477.8076     -1115.3428      18336.9      
   9894000   297.92035     -4255.0669      1384.3104     -1422.3568      153.89923      18575.75     
   9895000   305.3069      -4249.0211      1445.6755     -1319.0347     -657.29096      18202.62     
   9896000   303.43348     -4229.2561      1364.6391     -1389.4141      769.0248       18296.51     
   9897000   308.54669     -4334.4332      1377.0898     -1457.2816     -148.60814      17953.082    
   9898000   293.99761     -4310.1319      1417.8393     -1462.964       2005.7012      17925.641    
   9899000   295.11417     -4319.9964      1401.0503     -1484.1892     -930.04327      18253.106    
   9900000   293.92734     -4286.5917      1437.0854     -1420.5193     -628.94415      18059.08     
   9901000   299.69351     -4289.6043      1392.4659     -1440.1181     -2458.6862      18328.191    
   9902000   304.02005     -4260.078       1437.3482     -1344.6751     -2665.1875      18470.551    
   9903000   292.92188     -4236.2312      1408.1619     -1403.9707     -385.85156      18262.973    
   9904000   301.05087     -4212.5046      1388.136      -1360.7492      446.10083      18215.585    
   9905000   295.51093     -4214.7667      1384.9479     -1393.1329      1344.4383      18144.342    
   9906000   302.12464     -4256.2383      1365.3404     -1422.0582      1014.3573      17975.031    
   9907000   302.59029     -4336.5522      1386.8833     -1478.5653     -1961.4467      18053.524    
   9908000   304.20658     -4214.0075      1408.9982     -1326.0479      2036.9899      18202.9      
   9909000   303.62186     -4294.3293      1358.9321     -1459.2784     -518.535        18082.048    
   9910000   299.00643     -4274.9181      1392.2572     -1428.981       1843.3335      18239.058    
   9911000   305.87057     -4264.201       1405.3617     -1371.788      -144.91932      18143.628    
   9912000   288.06316     -4226.8844      1387.4542     -1438.9532      2657.1129      18267.159    
   9913000   293.1491      -4220.6117      1391.1808     -1404.2275     -569.30786      18514.726    
   9914000   300.86028     -4211.0746      1336.1243     -1412.2575      212.53879      18312.348    
   9915000   302.8175      -4243.241       1407.1297     -1363.9031     -1088.4306      18225.051    
   9916000   299.92824     -4286.2392      1374.3395     -1453.7382      175.71578      18234.029    
   9917000   299.69151     -4236.292       1380.4952     -1398.7862     -124.27994      18051.731    
   9918000   303.6347      -4251.1589      1412.0167     -1362.961      -223.63824      17720.304    
   9919000   296.59648     -4210.9682      1346.0405     -1422.9642     -1612.9496      18285.799    
   9920000   307.77214     -4260.6959      1361.3322     -1403.0675      860.35545      18082.684    
   9921000   297.25927     -4195.5219      1392.715      -1357.6212     -640.87511      18336.425    
   9922000   293.63653     -4247.8995      1430.3728     -1389.9536     -1974.5283      18546.938    
   9923000   297.95982     -4206.9273      1357.2649     -1401.0709     -116.0275       18277.244    
   9924000   302.45264     -4198.1377      1377.874      -1349.8293     -742.45609      18490.603    
   9925000   296.66055     -4277.8829      1414.508      -1421.1         1867.0498      18148.542    
   9926000   299.5856      -4266.6288      1424.0206     -1386.1125      59.027707      18464.914    
   9927000   310.03174     -4229.7609      1362.0679     -1360.4113     -302.54593      18142.721    
   9928000   297.39727     -4231.0197      1383.7408     -1401.4222     -1456.791       18459.611    
   9929000   300.54019     -4226.7838      1386.6856     -1378.9616      551.22799      18450.002    
   9930000   303.53085     -4234.417       1375.4715     -1383.2692      1752.0609      18017.37     
   9931000   295.09156     -4232.3363      1354.1575     -1443.5318      1368.5782      18089.234    
   9932000   313.77839     -4238.1773      1394.5545     -1318.126      -584.32253      18316.275    
   9933000   298.09209     -4216.5824      1373.2235     -1394.1242      394.82653      18273.959    
   9934000   295.94814     -4295.5798      1385.7181     -1471.0503     -2020.9054      18181.535    
   9935000   299.65187     -4256.6214      1410.0182     -1389.7854      59.208865      18030.362    
   9936000   295.59618     -4286.9371      1395.5667     -1454.2701      573.81488      18119.2      
   9937000   306.9883      -4317.4657      1408.0277     -1416.9526     -2400.7891      18155.29     
   9938000   307.97527     -4263.7742      1396.4737     -1370.0168     -852.28302      18254.549    
   9939000   303.11522     -4295.477       1371.6236     -1450.1977     -742.50243      18144.073    
   9940000   312.7269      -4256.0078      1390.1601     -1345.463       3119.2133      17892.778    
   9941000   301.49622     -4344.4592      1403.2395     -1475.4351     -808.05004      18013.636    
   9942000   306.45422     -4296.5571      1381.469      -1425.1993      41.804424      18173.445    
   9943000   299.09363     -4258.6575      1392.8417     -1411.712      -772.78931      18245.89     
   9944000   290.20819     -4256.5107      1381.2689     -1464.3363      1157.0939      18168.973    
   9945000   296.69582     -4343.4277      1398.9947     -1501.9867     -601.86876      18163.362    
   9946000   309.45464     -4302.9022      1390.7916     -1407.6346     -2874.3463      18059.953    
   9947000   295.11745     -4328.6965      1373.8882     -1520.0355     -432.16184      18113.994    
   9948000   303.38854     -4265.5444      1375.2182     -1415.3418     -1026.0997      18405.68     
   9949000   297.54683     -4250.8982      1410.3474     -1393.9671      43.631474      18222.507    
   9950000   291.97937     -4263.7848      1378.0567     -1466.2116      875.78286      18207.925    
   9951000   305.48695     -4237.9282      1349.6166     -1403.1253      1185.9783      18315.347    
   9952000   304.2254      -4290.7832      1406.8821     -1404.8481     -404.41137      18480.131    
   9953000   295.50669     -4239.0843      1407.0563     -1395.3628      271.6671       18110.287    
   9954000   301.39515     -4343.0985      1356.4831     -1521.3222      109.29252      18039.383    
   9955000   302.52346     -4310.6388      1420.871      -1418.9891     -1496.8389      18268.763    
   9956000   301.07984     -4269.1698      1434.4083     -1371.0014     -809.50836      18367.926    
   9957000   299.46494     -4300.9481      1425.0084     -1420.0307      1212.7462      18161.779    
   9958000   296.24725     -4318.123       1369.1558     -1508.7017      932.82983      18218.937    
   9959000   307.89749     -4278.8894      1459.5825     -1322.4013     -942.56044      18448.492    
   9960000   300.82588     -4231.5837      1386.7401     -1382.3181      146.70073      18093.3      
   9961000   289.8348      -4245.5649      1402.0284     -1434.4463      532.81955      18038.672    
   9962000   299.71707     -4252.9664      1378.2946     -1417.537       409.25766      18287.418    
   9963000   297.11651     -4248.4731      1451.3211     -1352.6603     -955.56978      17953.981    
   9964000   294.06943     -4273.0593      1430.411      -1412.9706      336.59104      17902.023    
   9965000   288.80694     -4203.8491      1371.5899     -1428.1662     -585.24849      18117.272    
   9966000   297.39661     -4228.1565      1411.2622     -1371.0408     -226.41893      18126.697    
   9967000   283.44271     -4249.567       1342.8911     -1528.6622      143.62249      18179.843    
   9968000   295.2737      -4293.2509      1369.051      -1488.6674     -1471.5674      18189.478    
   9969000   290.46769     -4241.6888      1359.5578     -1469.9639      697.57442      18029.592    
   9970000   299.47737     -4273.2363      1400.4867     -1416.78       -1033.6974      18523.935    
   9971000   299.44275     -4242.1361      1385.8004     -1400.5346      1466.7589      18138.309    
   9972000   286.85656     -4281.607       1362.6327     -1524.3635     -1396.1904      18120.824    
   9973000   299.26938     -4239.1367      1382.895      -1401.2834      1146.9777      18228.665    
   9974000   304.52885     -4230.2036      1399.5062     -1350.1691      1785.599       18156.364    
   9975000   293.69083     -4302.6524      1407.5491     -1467.2663      7.9382286      18077.803    
   9976000   305.80548     -4293.4376      1397.2698     -1409.433      -564.93714      18139.999    
   9977000   293.46155     -4299.58        1407.2235     -1465.6341      1947.7365      17932.098    
   9978000   301.15038     -4371.2009      1395.1274     -1511.9704     -169.84047      17858.059    
   9979000   305.31172     -4310.9643      1373.9804     -1452.6495     -929.95254      18203.184    
   9980000   296.4007      -4303.0189      1381.7389     -1480.2683      618.64209      17928.846    
   9981000   300.15185     -4303.7893      1348.1127     -1496.428       657.73426      18360.154    
   9982000   309.73936     -4263.7117      1355.4176     -1402.4339     -1.9429726      18347.305    
   9983000   303.0138      -4284.0617      1336.7668     -1474.1324     -1489.4648      17848.922    
   9984000   302.24732     -4276.5287      1329.6002     -1477.4923     -614.62288      17868.418    
   9985000   293.07828     -4266.1276      1412.1502     -1429.1184     -1406.6508      18009.624    
   9986000   314.63981     -4278.8849      1394.2409     -1354.9593      101.29419      18027.62     
   9987000   289.54897     -4203.6467      1369.8061     -1426.1401      3106.2391      18050.126    
   9988000   294.9249      -4244.2242      1331.1784     -1479.2091      225.47306      17934.838    
   9989000   301.11587     -4268.2108      1396.5623     -1407.7131     -1020.9039      18328.936    
   9990000   305.32428     -4275.0296      1394.8214     -1395.8129     -3170.4597      18266.588    
   9991000   290.92444     -4238.7466      1376.482      -1447.8769     -200.84284      17776.921    
   9992000   307.71967     -4259.3239      1368.2063     -1395.0765      27.069803      17845.052    
   9993000   295.67621     -4250.8475      1347.8698     -1465.4883     -352.20565      17847.066    
   9994000   299.8168      -4189.5606      1333.1766     -1398.7643      1322.3695      18146.264    
   9995000   294.16863     -4268.0851      1404.8376     -1433.0876     -2213.1487      18214.47     
   9996000   306.84592     -4241.4658      1377.4018     -1372.2708      832.17691      18197.262    
   9997000   293.6061      -4292.8482      1373.1448     -1492.2783      679.80983      17972.509    
   9998000   314.58491     -4240.1609      1384.9947     -1325.7484     -986.87041      18040.287    
   9999000   290.88869     -4265.8368      1382.3509     -1469.272      -137.95833      17992.309    
  10000000   306.68204     -4247.8369      1396.9339     -1359.9065     -2270.4706      17953.125    
Loop time of 111706 on 8 procs for 10000000 steps with 1952 atoms

Performance: 7.735 ns/day, 3.103 hours/ns, 89.520 timesteps/s, 174.744 katom-step/s
99.1% CPU use with 8 MPI tasks x no OpenMP threads

MPI task timing breakdown:
Section |  min time  |  avg time  |  max time  |%varavg| %total
---------------------------------------------------------------
Pair    | 82742      | 91147      | 98899      |1804.2 | 81.60
Bond    | 265.85     | 280.88     | 301.85     |  76.4 |  0.25
Kspace  | 5863.6     | 13599      | 22012      |4665.8 | 12.17
Neigh   | 3035.5     | 3036.2     | 3036.9     |   0.9 |  2.72
Comm    | 1695       | 1699.4     | 1704.8     |   8.6 |  1.52
Output  | 2.405      | 2.4301     | 2.6018     |   4.2 |  0.00
Modify  | 1482.2     | 1753.8     | 1793.8     | 245.1 |  1.57
Other   |            | 187        |            |       |  0.17

Nlocal:            244 ave         259 max         233 min
Histogram: 1 2 0 0 2 1 1 0 0 1
Nghost:        11176.8 ave       11277 max       11048 min
Histogram: 1 0 0 1 1 1 0 3 0 1
Neighs:         240836 ave      273199 max      211552 min
Histogram: 1 1 1 1 0 1 1 1 0 1

Total # of neighbors = 1926691
Ave neighs/atom = 987.03432
Ave special neighs/atom = 5.6721311
Neighbor list builds = 424948
Dangerous builds = 0
write_data prod.data
System init for write_data ...
PPPM initialization ...
  extracting TIP4P info from pair style
  using 12-bit tables for long-range coulomb (../kspace.cpp:342)
  G vector (1/distance) = 0.21355696
  grid = 15 15 15
  stencil order = 5
  estimated absolute RMS force accuracy = 0.0032641517
  estimated relative force accuracy = 9.8298958e-06
  using double precision KISS FFT
  3d grid and FFT values/proc = 2744 512
Generated 21 of 21 mixed pair_coeff terms from geometric mixing rule
Total wall time: 31:01:46
